      -----------------------------------------------------------      
     |                   =====================                   |     
     |                           x T B                           |     
     |                   =====================                   |     
     |                         S. Grimme                         |     
     |          Mulliken Center for Theoretical Chemistry        |     
     |                    University of Bonn                     |     
      -----------------------------------------------------------      

   * xtb version 6.6.0 (27203a8) compiled by 'fiszczyp@arinto' on 2023-07-22

   xtb is free software: you can redistribute it and/or modify it under
   the terms of the GNU Lesser General Public License as published by
   the Free Software Foundation, either version 3 of the License, or
   (at your option) any later version.
   
   xtb is distributed in the hope that it will be useful,
   but WITHOUT ANY WARRANTY; without even the implied warranty of
   MERCHANTABILITY or FITNESS FOR A PARTICULAR PURPOSE.  See the
   GNU Lesser General Public License for more details.
   
   Cite this work as:
   * C. Bannwarth, E. Caldeweyher, S. Ehlert, A. Hansen, P. Pracht,
     J. Seibert, S. Spicher, S. Grimme, WIREs Comput. Mol. Sci., 2020, 11,
     e01493. DOI: 10.1002/wcms.1493
   
   for GFN2-xTB:
   * C. Bannwarth, S. Ehlert and S. Grimme., J. Chem. Theory Comput., 2019,
     15, 1652-1671. DOI: 10.1021/acs.jctc.8b01176
   for GFN1-xTB:
   * S. Grimme, C. Bannwarth, P. Shushkov, J. Chem. Theory Comput., 2017,
     13, 1989-2009. DOI: 10.1021/acs.jctc.7b00118
   for GFN0-xTB:
   * P. Pracht, E. Caldeweyher, S. Ehlert, S. Grimme, ChemRxiv, 2019, preprint.
     DOI: 10.26434/chemrxiv.8326202.v1
   for GFN-FF:
   * S. Spicher and S. Grimme, Angew. Chem. Int. Ed., 2020, 59, 15665-15673.
     DOI: 10.1002/anie.202004239
   
   for ALPB and GBSA implicit solvation:
   * S. Ehlert, M. Stahn, S. Spicher, S. Grimme, J. Chem. Theory Comput.,
     2021, 17, 4250-4261. DOI: 10.1021/acs.jctc.1c00471
   
   for DFT-D4:
   * E. Caldeweyher, C. Bannwarth and S. Grimme, J. Chem. Phys., 2017,
     147, 034112. DOI: 10.1063/1.4993215
   * E. Caldeweyher, S. Ehlert, A. Hansen, H. Neugebauer, S. Spicher,
     C. Bannwarth and S. Grimme, J. Chem. Phys., 2019, 150, 154122.
     DOI: 10.1063/1.5090222
   * E. Caldeweyher, J.-M. Mewes, S. Ehlert and S. Grimme, Phys. Chem. Chem. Phys.
     2020, 22, 8499-8512. DOI: 10.1039/D0CP00502A
   
   for sTDA-xTB:
   * S. Grimme and C. Bannwarth, J. Chem. Phys., 2016, 145, 054103.
     DOI: 10.1063/1.4959605
   
   in the mass-spec context:
   * V. Asgeirsson, C. Bauer and S. Grimme, Chem. Sci., 2017, 8, 4879.
     DOI: 10.1039/c7sc00601b
   * J. Koopman and S. Grimme, ACS Omega 2019, 4, 12, 15120-15133.
     DOI: 10.1021/acsomega.9b02011
   
   for metadynamics refer to:
   * S. Grimme, J. Chem. Theory Comput., 2019, 155, 2847-2862
     DOI: 10.1021/acs.jctc.9b00143
   
   for SPH calculations refer to:
   * S. Spicher and S. Grimme, J. Chem. Theory Comput., 2021, 17, 1701-1714
     DOI: 10.1021/acs.jctc.0c01306
   
   with help from (in alphabetical order)
   P. Atkinson, C. Bannwarth, F. Bohle, G. Brandenburg, E. Caldeweyher
   M. Checinski, S. Dohm, S. Ehlert, S. Ehrlich, I. Gerasimov, C. Hölzer
   A. Katbashev, J. Koopman, C. Lavigne, S. Lehtola, F. März, M. Müller,
   F. Musil, H. Neugebauer, J. Pisarek, C. Plett, P. Pracht, F. Pultar,
   J. Seibert, P. Shushkov, S. Spicher, M. Stahn, M. Steiner, T. Strunk,
   J. Stückrath, T. Rose, and J. Unsleber
   
 * started run on 2023/10/31 at 15:34:44.632     

           -------------------------------------------------
          |                Calculation Setup                |
           -------------------------------------------------

          program call               : xtb 4p4_dioxane.xyz --opt --gfn 2 --alpb chcl3 --cycles 10000
          coordinate file            : 4p4_dioxane.xyz
          omp threads                :                    36

   ID    Z sym.   atoms
    1    6 C      1-56, 129, 130, 132, 133
    2   35 Br     57-60
    3    7 N      61-68
    4    1 H      69-128, 135-142
    5    8 O      131, 134

molecular fragmentation (1/2 indicates fragments):
111111111111111111111111111111111111111111111111111111111111111111111111
1111111111111111111111111111111111111111111111111111111122222222222222
# atoms in fragment 1/2:   128    14
 fragment masses (1/2) :     1164.75       88.11
CMA distance (Bohr)    :   1.300
constraining FC (au)   :  0.0500

           -------------------------------------------------
          |                 G F N 2 - x T B                 |
           -------------------------------------------------

        Reference                      10.1021/acs.jctc.8b01176
      * Hamiltonian:
        H0-scaling (s, p, d)           1.850000    2.230000    2.230000
        zeta-weighting                 0.500000
      * Dispersion:
        s8                             2.700000
        a1                             0.520000
        a2                             5.000000
        s9                             5.000000
      * Repulsion:
        kExp                           1.500000    1.000000
        rExp                           1.000000
      * Coulomb:
        alpha                          2.000000
        third order                    shell-resolved
        anisotropic                    true
        a3                             3.000000
        a5                             4.000000
        cn-shift                       1.200000
        cn-exp                         4.000000
        max-rad                        5.000000

      * Solvation model:               ALPB
        Solvent                        chcl3
        Parameter file                 internal GFN2-xTB/ALPB
        Dielectric constant                4.8100E+00
        Reference state                gsolv [1 M gas/solution]
        Free energy shift                  3.8910E-03 Eh       2.4417E+00 kcal/mol
        Temperature                        2.9815E+02 K
        Density                            1.4900E+00 kg/L
        Solvent mass                       1.1938E+02 g/mol
        Interaction kernel             P16
        Born radius scaling (c1)           1.3274E+00
        Born radii integrator          GBOBC
        Born offset                        0.0000E+00 a0       0.0000E+00 AA
        H-bond correction              false
        Ion screening                  false
        Surface tension                    1.0000E-05 Eh       1.5569E+01 dyn/cm
        Grid points                               230 per atom

          ...................................................
          :                      SETUP                      :
          :.................................................:
          :  # basis functions                 388          :
          :  # atomic orbitals                 384          :
          :  # shells                          220          :
          :  # electrons                       388          :
          :  max. iterations                   250          :
          :  Hamiltonian                  GFN2-xTB          :
          :  restarted?                      false          :
          :  GBSA solvation                   true          :
          :  PC potential                    false          :
          :  electronic temp.          300.0000000     K    :
          :  accuracy                    1.0000000          :
          :  -> integral cutoff          0.2500000E+02      :
          :  -> integral neglect         0.1000000E-07      :
          :  -> SCF convergence          0.1000000E-05 Eh   :
          :  -> wf. convergence          0.1000000E-03 e    :
          :  Broyden damping             0.4000000          :
          ...................................................

 iter      E             dE          RMSdq      gap      omega  full diag
   1   -213.7992972 -0.213799E+03  0.405E+00    2.52       0.0  T
   2   -213.9661094 -0.166812E+00  0.245E+00    2.47       1.0  T
   3   -213.9374358  0.286736E-01  0.897E-01    2.14       1.0  T
   4   -213.9923695 -0.549337E-01  0.396E-01    2.23       1.0  T
   5   -213.9968223 -0.445283E-02  0.226E-01    2.29       1.0  T
   6   -213.9975274 -0.705131E-03  0.152E-01    2.33       1.0  T
   7   -213.9979875 -0.460045E-03  0.109E-01    2.33       1.0  T
   8   -213.9983009 -0.313423E-03  0.565E-02    2.33       1.0  T
   9   -213.9983881 -0.871854E-04  0.179E-02    2.33       1.0  T
  10   -213.9984012 -0.131245E-04  0.875E-03    2.33       1.0  T
  11   -213.9984028 -0.159919E-05  0.508E-03    2.33       1.7  T
  12   -213.9984033 -0.529350E-06  0.212E-03    2.33       4.0  T
  13   -213.9984034 -0.665406E-07  0.158E-03    2.33       5.3  T
  14   -213.9984034 -0.438417E-07  0.632E-04    2.33      13.3  T
  15   -213.9984035 -0.115271E-07  0.306E-04    2.33      27.4  T

   *** convergence criteria satisfied after 15 iterations ***

         #    Occupation            Energy/Eh            Energy/eV
      -------------------------------------------------------------
         1        2.0000           -0.8555651             -23.2811
       ...           ...                  ...                  ...
       188        2.0000           -0.3886128             -10.5747
       189        2.0000           -0.3881741             -10.5628
       190        2.0000           -0.3872953             -10.5388
       191        2.0000           -0.3871034             -10.5336
       192        2.0000           -0.3863866             -10.5141
       193        2.0000           -0.3851386             -10.4802
       194        2.0000           -0.3838338             -10.4446 (HOMO)
       195                         -0.2981594              -8.1133 (LUMO)
       196                         -0.2976638              -8.0998
       197                         -0.2947535              -8.0206
       198                         -0.2896399              -7.8815
       199                         -0.2847882              -7.7495
       ...                                ...                  ...
       384                          0.6646487              18.0860
      -------------------------------------------------------------
                  HL-Gap            0.0856744 Eh            2.3313 eV
             Fermi-level           -0.3409966 Eh           -9.2790 eV

 SCC (total)                   0 d,  0 h,  0 min,  0.551 sec
 SCC setup                      ...        0 min,  0.014 sec (  2.486%)
 Dispersion                     ...        0 min,  0.005 sec (  0.924%)
 classical contributions        ...        0 min,  0.001 sec (  0.201%)
 integral evaluation            ...        0 min,  0.018 sec (  3.259%)
 iterations                     ...        0 min,  0.349 sec ( 63.440%)
 molecular gradient             ...        0 min,  0.158 sec ( 28.768%)
 printout                       ...        0 min,  0.005 sec (  0.905%)

         :::::::::::::::::::::::::::::::::::::::::::::::::::::
         ::                     SUMMARY                     ::
         :::::::::::::::::::::::::::::::::::::::::::::::::::::
         :: total energy            -211.021004831358 Eh    ::
         :: total w/o Gsasa/hb      -210.957645215660 Eh    ::
         :: gradient norm              0.112536242148 Eh/a0 ::
         :: HOMO-LUMO gap              2.331318556995 eV    ::
         ::.................................................::
         :: SCC energy              -213.998403459544 Eh    ::
         :: -> isotropic ES            0.145301926448 Eh    ::
         :: -> anisotropic ES         -0.000593846240 Eh    ::
         :: -> anisotropic XC          0.131644853488 Eh    ::
         :: -> dispersion             -0.209695469093 Eh    ::
         :: -> Gsolv                  -0.086069922904 Eh    ::
         ::    -> Gelec               -0.022710307206 Eh    ::
         ::    -> Gsasa               -0.067250634942 Eh    ::
         ::    -> Ghb                  0.000000000000 Eh    ::
         ::    -> Gshift               0.003891019244 Eh    ::
         :: repulsion energy           2.963962130645 Eh    ::
         :: add. restraining           0.000000000000 Eh    ::
         :: total charge               0.000000000000 e     ::
         :::::::::::::::::::::::::::::::::::::::::::::::::::::

      ----------------------------------------------------------- 
     |                   =====================                   |
     |                        A N C O P T                        |
     |                   =====================                   |
     |               Approximate Normal Coordinate               |
     |                Rational Function Optimizer                |
      ----------------------------------------------------------- 

          ...................................................
          :                      SETUP                      :
          :.................................................:
          :   optimization level            normal          :
          :   max. optcycles                 10000          :
          :   ANC micro-cycles                  20          :
          :   degrees of freedom               420          :
          :.................................................:
          :   RF solver                   davidson          :
          :   write xtbopt.log                true          :
          :   linear?                        false          :
          :   energy convergence         0.5000000E-05 Eh   :
          :   grad. convergence          0.1000000E-02 Eh/α :
          :   maxmium RF displ.          1.0000000          :
          :   Hlow (freq-cutoff)         0.1000000E-01      :
          :   Hmax (freq-cutoff)         5.0000000          :
          :   S6 in model hess.         20.0000000          :
          ...................................................

generating ANC from model Hessian ...
Using Lindh-Hessian (1995)
 Shifting diagonal of input Hessian by   9.957728075265139E-003
 Lowest  eigenvalues of input Hessian
    0.000000    0.000000    0.000000    0.000000    0.000000    0.000000
    0.010000    0.010060    0.010157    0.010257    0.010277    0.010321
    0.010552    0.010589    0.010633    0.011013    0.011125    0.011190
 Highest eigenvalues
    2.145778    2.146127    2.168986    2.170036    2.171388    2.171745
 

........................................................................
.............................. CYCLE    1 ..............................
........................................................................

 iter      E             dE          RMSdq      gap      omega  full diag
   1   -213.9984035 -0.213998E+03  0.154E-04    2.33       0.0  T
   2   -213.9984035 -0.511307E-09  0.113E-04    2.33      74.3  T
   3   -213.9984035 -0.252726E-09  0.883E-05    2.33      95.0  T
     SCC iter.                  ...        0 min,  0.059 sec
     gradient                   ...        0 min,  0.033 sec
 * total energy  :  -211.0210048 Eh     change       -0.2041020E-08 Eh
   gradient norm :     0.1125380 Eh/α   predicted     0.0000000E+00 (-100.00%)
   displ. norm   :     0.6508185 α      lambda       -0.6199442E-01
   maximum displ.:     0.2254737 α      in ANC's #199, #64, #181, ...

........................................................................
.............................. CYCLE    2 ..............................
........................................................................

 iter      E             dE          RMSdq      gap      omega  full diag
   1   -214.0500666 -0.214050E+03  0.219E-01    2.33       0.0  T
   2   -214.0505586 -0.491975E-03  0.126E-01    2.33       1.0  T
   3   -214.0504545  0.104098E-03  0.537E-02    2.33       1.0  T
   4   -214.0506493 -0.194802E-03  0.149E-02    2.32       1.0  T
   5   -214.0506613 -0.120424E-04  0.865E-03    2.33       1.0  T
   6   -214.0506622 -0.844286E-06  0.564E-03    2.33       1.5  T
   7   -214.0506630 -0.852593E-06  0.386E-03    2.33       2.2  T
   8   -214.0506634 -0.386548E-06  0.170E-03    2.33       4.9  T
   9   -214.0506635 -0.712193E-07  0.990E-04    2.33       8.5  T
  10   -214.0506635 -0.328758E-07  0.530E-04    2.33      15.8  T
     SCC iter.                  ...        0 min,  0.181 sec
     gradient                   ...        0 min,  0.033 sec
 * total energy  :  -211.0625496 Eh     change       -0.4154478E-01 Eh
   gradient norm :     0.0397551 Eh/α   predicted    -0.4412654E-01 (   6.21%)
   displ. norm   :     0.6475176 α      lambda       -0.2165459E-01
   maximum displ.:     0.2422801 α      in ANC's #45, #64, #44, ...

........................................................................
.............................. CYCLE    3 ..............................
........................................................................

 iter      E             dE          RMSdq      gap      omega  full diag
   1   -214.0723584 -0.214072E+03  0.133E-01    2.32       0.0  T
   2   -214.0724408 -0.823728E-04  0.736E-02    2.32       1.0  T
   3   -214.0724133  0.275317E-04  0.243E-02    2.32       1.0  T
   4   -214.0724559 -0.426512E-04  0.806E-03    2.32       1.0  T
   5   -214.0724579 -0.198444E-05  0.410E-03    2.32       2.0  T
   6   -214.0724581 -0.176601E-06  0.242E-03    2.32       3.5  T
   7   -214.0724582 -0.127762E-06  0.185E-03    2.32       4.5  T
   8   -214.0724583 -0.823374E-07  0.730E-04    2.32      11.5  T
   9   -214.0724583 -0.180071E-07  0.395E-04    2.32      21.2  T
     SCC iter.                  ...        0 min,  0.166 sec
     gradient                   ...        0 min,  0.035 sec
 * total energy  :  -211.0800568 Eh     change       -0.1750718E-01 Eh
   gradient norm :     0.0246801 Eh/α   predicted    -0.1536695E-01 ( -12.22%)
   displ. norm   :     0.7196837 α      lambda       -0.1533135E-01
   maximum displ.:     0.2628738 α      in ANC's #45, #34, #44, ...

........................................................................
.............................. CYCLE    4 ..............................
........................................................................

 iter      E             dE          RMSdq      gap      omega  full diag
   1   -214.0845494 -0.214085E+03  0.111E-01    2.31       0.0  T
   2   -214.0845882 -0.388610E-04  0.631E-02    2.31       1.0  T
   3   -214.0845602  0.280591E-04  0.218E-02    2.31       1.0  T
   4   -214.0845999 -0.397509E-04  0.558E-03    2.31       1.5  T
   5   -214.0846005 -0.568263E-06  0.307E-03    2.31       2.7  T
   6   -214.0846006 -0.118488E-06  0.189E-03    2.31       4.4  T
   7   -214.0846007 -0.808892E-07  0.140E-03    2.31       6.0  T
   8   -214.0846007 -0.489690E-07  0.637E-04    2.31      13.2  T
   9   -214.0846008 -0.124447E-07  0.325E-04    2.31      25.8  T
     SCC iter.                  ...        0 min,  0.167 sec
     gradient                   ...        0 min,  0.032 sec
 * total energy  :  -211.0924908 Eh     change       -0.1243402E-01 Eh
   gradient norm :     0.0148896 Eh/α   predicted    -0.1163607E-01 (  -6.42%)
   displ. norm   :     0.7251946 α      lambda       -0.9817949E-02
   maximum displ.:     0.2573075 α      in ANC's #34, #45, #44, ...

........................................................................
.............................. CYCLE    5 ..............................
........................................................................

 iter      E             dE          RMSdq      gap      omega  full diag
   1   -214.0906030 -0.214091E+03  0.999E-02    2.31       0.0  T
   2   -214.0906260 -0.229969E-04  0.572E-02    2.31       1.0  T
   3   -214.0906118  0.142084E-04  0.152E-02    2.31       1.0  T
   4   -214.0906329 -0.210888E-04  0.443E-03    2.31       1.9  T
   5   -214.0906332 -0.334275E-06  0.251E-03    2.31       3.3  T
   6   -214.0906333 -0.824563E-07  0.156E-03    2.31       5.4  T
   7   -214.0906333 -0.486016E-07  0.115E-03    2.31       7.3  T
   8   -214.0906334 -0.333035E-07  0.545E-04    2.31      15.4  T
   9   -214.0906334 -0.802635E-08  0.274E-04    2.31      30.7  T
     SCC iter.                  ...        0 min,  0.161 sec
     gradient                   ...        0 min,  0.031 sec
 * total energy  :  -211.1004941 Eh     change       -0.8003307E-02 Eh
   gradient norm :     0.0108734 Eh/α   predicted    -0.7490646E-02 (  -6.41%)
   displ. norm   :     0.7215119 α      lambda       -0.6424549E-02
   maximum displ.:     0.2716524 α      in ANC's #34, #45, #30, ...

........................................................................
.............................. CYCLE    6 ..............................
........................................................................

 iter      E             dE          RMSdq      gap      omega  full diag
   1   -214.0935546 -0.214094E+03  0.103E-01    2.31       0.0  T
   2   -214.0935769 -0.223569E-04  0.586E-02    2.31       1.0  T
   3   -214.0935702  0.670143E-05  0.124E-02    2.31       1.0  T
   4   -214.0935836 -0.133949E-04  0.487E-03    2.31       1.7  T
   5   -214.0935840 -0.404535E-06  0.286E-03    2.31       2.9  T
   6   -214.0935841 -0.112754E-06  0.190E-03    2.31       4.4  T
   7   -214.0935842 -0.577974E-07  0.134E-03    2.31       6.3  T
   8   -214.0935842 -0.477527E-07  0.529E-04    2.31      15.9  T
   9   -214.0935843 -0.753388E-08  0.284E-04    2.31      29.5  T
     SCC iter.                  ...        0 min,  0.178 sec
     gradient                   ...        0 min,  0.032 sec
 * total energy  :  -211.1057337 Eh     change       -0.5239630E-02 Eh
   gradient norm :     0.0097190 Eh/α   predicted    -0.4884520E-02 (  -6.78%)
   displ. norm   :     0.7095087 α      lambda       -0.4290522E-02
   maximum displ.:     0.2694862 α      in ANC's #34, #30, #45, ...

........................................................................
.............................. CYCLE    7 ..............................
........................................................................

 iter      E             dE          RMSdq      gap      omega  full diag
   1   -214.0944137 -0.214094E+03  0.110E-01    2.31       0.0  T
   2   -214.0944399 -0.262624E-04  0.621E-02    2.31       1.0  T
   3   -214.0944388  0.111104E-05  0.117E-02    2.31       1.0  T
   4   -214.0944481 -0.925502E-05  0.584E-03    2.31       1.4  T
   5   -214.0944487 -0.640877E-06  0.328E-03    2.31       2.6  T
   6   -214.0944489 -0.156720E-06  0.233E-03    2.31       3.6  T
   7   -214.0944489 -0.779821E-07  0.150E-03    2.31       5.6  T
   8   -214.0944490 -0.726617E-07  0.535E-04    2.31      15.7  T
   9   -214.0944490 -0.764530E-08  0.311E-04    2.31      27.0  T
     SCC iter.                  ...        0 min,  0.182 sec
     gradient                   ...        0 min,  0.056 sec
 * total energy  :  -211.1092553 Eh     change       -0.3521578E-02 Eh
   gradient norm :     0.0097682 Eh/α   predicted    -0.3225193E-02 (  -8.42%)
   displ. norm   :     0.7061368 α      lambda       -0.3052124E-02
   maximum displ.:     0.2577070 α      in ANC's #34, #30, #16, ...

........................................................................
.............................. CYCLE    8 ..............................
........................................................................

 iter      E             dE          RMSdq      gap      omega  full diag
   1   -214.0947979 -0.214095E+03  0.123E-01    2.31       0.0  T
   2   -214.0948290 -0.311458E-04  0.684E-02    2.31       1.0  T
   3   -214.0948316 -0.257936E-05  0.123E-02    2.31       1.0  T
   4   -214.0948389 -0.728863E-05  0.690E-03    2.31       1.2  T
   5   -214.0948399 -0.994711E-06  0.364E-03    2.31       2.3  T
   6   -214.0948400 -0.182666E-06  0.269E-03    2.31       3.1  T
   7   -214.0948402 -0.104316E-06  0.153E-03    2.31       5.5  T
   8   -214.0948402 -0.906892E-07  0.540E-04    2.31      15.6  T
   9   -214.0948402 -0.683070E-08  0.342E-04    2.31      24.5  T
     SCC iter.                  ...        0 min,  0.318 sec
     gradient                   ...        0 min,  0.036 sec
 * total energy  :  -211.1117526 Eh     change       -0.2497260E-02 Eh
   gradient norm :     0.0091024 Eh/α   predicted    -0.2287003E-02 (  -8.42%)
   displ. norm   :     0.6825302 α      lambda       -0.2141294E-02
   maximum displ.:     0.2287845 α      in ANC's #34, #16, #33, ...

........................................................................
.............................. CYCLE    9 ..............................
........................................................................

 iter      E             dE          RMSdq      gap      omega  full diag
   1   -214.0950204 -0.214095E+03  0.125E-01    2.31       0.0  T
   2   -214.0950519 -0.314738E-04  0.694E-02    2.31       1.0  T
   3   -214.0950567 -0.478555E-05  0.120E-02    2.31       1.0  T
   4   -214.0950619 -0.523791E-05  0.711E-03    2.31       1.2  T
   5   -214.0950631 -0.113948E-05  0.363E-03    2.31       2.3  T
   6   -214.0950633 -0.176042E-06  0.273E-03    2.31       3.1  T
   7   -214.0950634 -0.109777E-06  0.139E-03    2.31       6.0  T
   8   -214.0950635 -0.887633E-07  0.518E-04    2.31      16.2  T
   9   -214.0950635 -0.515945E-08  0.341E-04    2.31      24.6  T
     SCC iter.                  ...        0 min,  0.279 sec
     gradient                   ...        0 min,  0.039 sec
 * total energy  :  -211.1134928 Eh     change       -0.1740231E-02 Eh
   gradient norm :     0.0078353 Eh/α   predicted    -0.1569406E-02 (  -9.82%)
   displ. norm   :     0.6613870 α      lambda       -0.1513324E-02
   maximum displ.:     0.2400670 α      in ANC's #16, #34, #33, ...

........................................................................
.............................. CYCLE   10 ..............................
........................................................................

 iter      E             dE          RMSdq      gap      omega  full diag
   1   -214.0960154 -0.214096E+03  0.124E-01    2.31       0.0  T
   2   -214.0960440 -0.286225E-04  0.685E-02    2.31       1.0  T
   3   -214.0960488 -0.475367E-05  0.117E-02    2.31       1.0  T
   4   -214.0960533 -0.449881E-05  0.694E-03    2.31       1.2  T
   5   -214.0960544 -0.109937E-05  0.339E-03    2.31       2.5  T
   6   -214.0960545 -0.135242E-06  0.256E-03    2.31       3.3  T
   7   -214.0960546 -0.105416E-06  0.121E-03    2.31       6.9  T
   8   -214.0960547 -0.659820E-07  0.477E-04    2.31      17.6  T
   9   -214.0960547 -0.384782E-08  0.320E-04    2.31      26.2  T
     SCC iter.                  ...        0 min,  0.187 sec
     gradient                   ...        0 min,  0.032 sec
 * total energy  :  -211.1147034 Eh     change       -0.1210542E-02 Eh
   gradient norm :     0.0058076 Eh/α   predicted    -0.1087652E-02 ( -10.15%)
   displ. norm   :     0.6208779 α      lambda       -0.9996771E-03
   maximum displ.:     0.2485967 α      in ANC's #16, #19, #33, ...

........................................................................
.............................. CYCLE   11 ..............................
........................................................................

 iter      E             dE          RMSdq      gap      omega  full diag
   1   -214.0971207 -0.214097E+03  0.113E-01    2.31       0.0  T
   2   -214.0971430 -0.223145E-04  0.624E-02    2.31       1.0  T
   3   -214.0971470 -0.400091E-05  0.101E-02    2.31       1.0  T
   4   -214.0971501 -0.306092E-05  0.606E-03    2.31       1.4  T
   5   -214.0971510 -0.919158E-06  0.285E-03    2.31       2.9  T
   6   -214.0971511 -0.884455E-07  0.213E-03    2.31       3.9  T
   7   -214.0971511 -0.720646E-07  0.994E-04    2.31       8.4  T
   8   -214.0971512 -0.401078E-07  0.396E-04    2.31      21.2  T
     SCC iter.                  ...        0 min,  0.158 sec
     gradient                   ...        0 min,  0.035 sec
 * total energy  :  -211.1154810 Eh     change       -0.7776388E-03 Eh
   gradient norm :     0.0048380 Eh/α   predicted    -0.6925224E-03 ( -10.95%)
   displ. norm   :     0.5403724 α      lambda       -0.5987754E-03
   maximum displ.:     0.2339534 α      in ANC's #16, #19, #20, ...

........................................................................
.............................. CYCLE   12 ..............................
........................................................................

 iter      E             dE          RMSdq      gap      omega  full diag
   1   -214.0990839 -0.214099E+03  0.922E-02    2.31       0.0  T
   2   -214.0990970 -0.130593E-04  0.513E-02    2.31       1.0  T
   3   -214.0990985 -0.153037E-05  0.853E-03    2.31       1.0  T
   4   -214.0991013 -0.279143E-05  0.491E-03    2.31       1.7  T
   5   -214.0991018 -0.543287E-06  0.227E-03    2.31       3.7  T
   6   -214.0991019 -0.468460E-07  0.167E-03    2.31       5.0  T
   7   -214.0991019 -0.493443E-07  0.725E-04    2.31      11.6  T
   8   -214.0991019 -0.184597E-07  0.279E-04    2.31      30.0  T
     SCC iter.                  ...        0 min,  0.161 sec
     gradient                   ...        0 min,  0.031 sec
 * total energy  :  -211.1159196 Eh     change       -0.4386303E-03 Eh
   gradient norm :     0.0052796 Eh/α   predicted    -0.3868187E-03 ( -11.81%)
   displ. norm   :     0.4501038 α      lambda       -0.3746474E-03
   maximum displ.:     0.2071012 α      in ANC's #16, #19, #20, ...

........................................................................
.............................. CYCLE   13 ..............................
........................................................................

 iter      E             dE          RMSdq      gap      omega  full diag
   1   -214.1001531 -0.214100E+03  0.706E-02    2.31       0.0  T
   2   -214.1001603 -0.724270E-05  0.397E-02    2.31       1.0  T
   3   -214.1001609 -0.539126E-06  0.629E-03    2.31       1.3  T
   4   -214.1001626 -0.177586E-05  0.360E-03    2.31       2.3  T
   5   -214.1001629 -0.305343E-06  0.170E-03    2.31       4.9  T
   6   -214.1001630 -0.264967E-07  0.125E-03    2.31       6.7  T
   7   -214.1001630 -0.263997E-07  0.627E-04    2.31      13.4  T
   8   -214.1001630 -0.102022E-07  0.205E-04    2.31      41.0  T
     SCC iter.                  ...        0 min,  0.156 sec
     gradient                   ...        0 min,  0.031 sec
 * total energy  :  -211.1161945 Eh     change       -0.2748208E-03 Eh
   gradient norm :     0.0055272 Eh/α   predicted    -0.2252759E-03 ( -18.03%)
   displ. norm   :     0.4216393 α      lambda       -0.3387879E-03
   maximum displ.:     0.1932251 α      in ANC's #16, #20, #19, ...

........................................................................
.............................. CYCLE   14 ..............................
........................................................................

 iter      E             dE          RMSdq      gap      omega  full diag
   1   -214.1024564 -0.214102E+03  0.638E-02    2.31       0.0  T
   2   -214.1024614 -0.494785E-05  0.364E-02    2.31       1.0  T
   3   -214.1024612  0.197247E-06  0.574E-03    2.31       1.5  T
   4   -214.1024631 -0.192834E-05  0.313E-03    2.31       2.7  T
   5   -214.1024633 -0.196151E-06  0.159E-03    2.31       5.3  T
   6   -214.1024633 -0.251675E-07  0.115E-03    2.31       7.3  T
   7   -214.1024633 -0.202812E-07  0.578E-04    2.31      14.5  T
   8   -214.1024633 -0.101606E-07  0.184E-04    2.31      45.6  T
     SCC iter.                  ...        0 min,  0.157 sec
     gradient                   ...        0 min,  0.033 sec
 * total energy  :  -211.1164625 Eh     change       -0.2680358E-03 Eh
   gradient norm :     0.0065324 Eh/α   predicted    -0.1995092E-03 ( -25.57%)
   displ. norm   :     0.4991436 α      lambda       -0.4166817E-03
   maximum displ.:     0.2129923 α      in ANC's #16, #20, #19, ...

........................................................................
.............................. CYCLE   15 ..............................
........................................................................

 iter      E             dE          RMSdq      gap      omega  full diag
   1   -214.1023046 -0.214102E+03  0.791E-02    2.32       0.0  T
   2   -214.1023128 -0.817702E-05  0.451E-02    2.32       1.0  T
   3   -214.1023131 -0.267463E-06  0.664E-03    2.32       1.3  T
   4   -214.1023157 -0.258843E-05  0.366E-03    2.32       2.3  T
   5   -214.1023159 -0.277934E-06  0.177E-03    2.32       4.7  T
   6   -214.1023160 -0.308703E-07  0.132E-03    2.32       6.4  T
   7   -214.1023160 -0.312486E-07  0.622E-04    2.32      13.5  T
   8   -214.1023160 -0.112118E-07  0.223E-04    2.32      37.6  T
     SCC iter.                  ...        0 min,  0.154 sec
     gradient                   ...        0 min,  0.032 sec
 * total energy  :  -211.1167967 Eh     change       -0.3342026E-03 Eh
   gradient norm :     0.0055841 Eh/α   predicted    -0.2602484E-03 ( -22.13%)
   displ. norm   :     0.5105920 α      lambda       -0.4203983E-03
   maximum displ.:     0.1850618 α      in ANC's #16, #20, #19, ...

........................................................................
.............................. CYCLE   16 ..............................
........................................................................

 iter      E             dE          RMSdq      gap      omega  full diag
   1   -214.1017540 -0.214102E+03  0.945E-02    2.33       0.0  T
   2   -214.1017683 -0.143011E-04  0.536E-02    2.33       1.0  T
   3   -214.1017705 -0.214309E-05  0.739E-03    2.33       1.1  T
   4   -214.1017729 -0.246991E-05  0.425E-03    2.33       2.0  T
   5   -214.1017734 -0.468440E-06  0.190E-03    2.33       4.4  T
   6   -214.1017734 -0.411614E-07  0.143E-03    2.33       5.9  T
   7   -214.1017735 -0.302450E-07  0.746E-04    2.33      11.2  T
   8   -214.1017735 -0.197915E-07  0.261E-04    2.33      32.1  T
     SCC iter.                  ...        0 min,  0.155 sec
     gradient                   ...        0 min,  0.033 sec
 * total energy  :  -211.1171148 Eh     change       -0.3181470E-03 Eh
   gradient norm :     0.0058962 Eh/α   predicted    -0.2649997E-03 ( -16.71%)
   displ. norm   :     0.4466689 α      lambda       -0.2905677E-03
   maximum displ.:     0.1444756 α      in ANC's #16, #1, #19, ...

........................................................................
.............................. CYCLE   17 ..............................
........................................................................

 iter      E             dE          RMSdq      gap      omega  full diag
   1   -214.0993759 -0.214099E+03  0.874E-02    2.34       0.0  T
   2   -214.0993894 -0.135730E-04  0.493E-02    2.34       1.0  T
   3   -214.0993917 -0.228977E-05  0.718E-03    2.33       1.2  T
   4   -214.0993938 -0.207114E-05  0.429E-03    2.33       2.0  T
   5   -214.0993943 -0.469200E-06  0.200E-03    2.33       4.2  T
   6   -214.0993943 -0.466649E-07  0.153E-03    2.33       5.5  T
   7   -214.0993944 -0.410975E-07  0.792E-04    2.33      10.6  T
   8   -214.0993944 -0.225606E-07  0.286E-04    2.33      29.4  T
     SCC iter.                  ...        0 min,  0.163 sec
     gradient                   ...        0 min,  0.033 sec
 * total energy  :  -211.1173235 Eh     change       -0.2086234E-03 Eh
   gradient norm :     0.0046762 Eh/α   predicted    -0.1742718E-03 ( -16.47%)
   displ. norm   :     0.3634119 α      lambda       -0.1998097E-03
   maximum displ.:     0.1272485 α      in ANC's #1, #8, #16, ...

........................................................................
.............................. CYCLE   18 ..............................
........................................................................

 iter      E             dE          RMSdq      gap      omega  full diag
   1   -214.0995544 -0.214100E+03  0.729E-02    2.34       0.0  T
   2   -214.0995645 -0.101017E-04  0.409E-02    2.34       1.0  T
   3   -214.0995667 -0.215253E-05  0.594E-03    2.34       1.4  T
   4   -214.0995677 -0.961044E-06  0.367E-03    2.34       2.3  T
   5   -214.0995680 -0.382850E-06  0.179E-03    2.34       4.7  T
   6   -214.0995681 -0.418871E-07  0.136E-03    2.34       6.2  T
   7   -214.0995681 -0.318265E-07  0.717E-04    2.34      11.7  T
   8   -214.0995681 -0.186933E-07  0.266E-04    2.34      31.5  T
     SCC iter.                  ...        0 min,  0.151 sec
     gradient                   ...        0 min,  0.037 sec
 * total energy  :  -211.1174675 Eh     change       -0.1440555E-03 Eh
   gradient norm :     0.0037980 Eh/α   predicted    -0.1131015E-03 ( -21.49%)
   displ. norm   :     0.3311882 α      lambda       -0.1874252E-03
   maximum displ.:     0.1308571 α      in ANC's #1, #8, #17, ...

........................................................................
.............................. CYCLE   19 ..............................
........................................................................

 iter      E             dE          RMSdq      gap      omega  full diag
   1   -214.0996060 -0.214100E+03  0.543E-02    2.34       0.0  T
   2   -214.0996114 -0.548181E-05  0.304E-02    2.34       1.0  T
   3   -214.0996125 -0.108386E-05  0.484E-03    2.34       1.7  T
   4   -214.0996132 -0.680805E-06  0.307E-03    2.34       2.7  T
   5   -214.0996134 -0.237344E-06  0.161E-03    2.34       5.2  T
   6   -214.0996135 -0.358782E-07  0.121E-03    2.34       6.9  T
   7   -214.0996135 -0.263922E-07  0.608E-04    2.34      13.8  T
   8   -214.0996135 -0.147180E-07  0.231E-04    2.34      36.4  T
     SCC iter.                  ...        0 min,  0.166 sec
     gradient                   ...        0 min,  0.036 sec
 * total energy  :  -211.1176104 Eh     change       -0.1428912E-03 Eh
   gradient norm :     0.0032110 Eh/α   predicted    -0.1039945E-03 ( -27.22%)
   displ. norm   :     0.3342220 α      lambda       -0.2091053E-03
   maximum displ.:     0.1438277 α      in ANC's #1, #8, #17, ...

........................................................................
.............................. CYCLE   20 ..............................
........................................................................

 iter      E             dE          RMSdq      gap      omega  full diag
   1   -214.1019427 -0.214102E+03  0.454E-02    2.34       0.0  T
   2   -214.1019464 -0.365682E-05  0.253E-02    2.34       1.0  T
   3   -214.1019469 -0.533015E-06  0.407E-03    2.34       2.1  T
   4   -214.1019475 -0.629355E-06  0.242E-03    2.34       3.5  T
   5   -214.1019477 -0.138863E-06  0.118E-03    2.34       7.1  T
   6   -214.1019477 -0.216999E-07  0.885E-04    2.34       9.5  T
   7   -214.1019477 -0.124921E-07  0.452E-04    2.34      18.6  T
     SCC iter.                  ...        0 min,  0.137 sec
     gradient                   ...        0 min,  0.036 sec
 * total energy  :  -211.1177690 Eh     change       -0.1586374E-03 Eh
   gradient norm :     0.0045809 Eh/α   predicted    -0.1162318E-03 ( -26.73%)
   displ. norm   :     0.4323133 α      lambda       -0.2148015E-03
   maximum displ.:     0.1861598 α      in ANC's #1, #8, #17, ...
 * RMSD in coord.:     0.7118678 α      energy gain  -0.9676421E-01 Eh

generating ANC from model Hessian ...
Using Lindh-Hessian (1995)
 Shifting diagonal of input Hessian by   1.002351173837297E-002
 Lowest  eigenvalues of input Hessian
    0.010000    0.000000    0.000000    0.000000    0.000000    0.000000
    0.000000    0.010049    0.010112    0.010192    0.010228    0.010296
    0.010352    0.010405    0.010411    0.010537    0.010720    0.010821
 Highest eigenvalues
    2.143644    2.148583    2.165648    2.167020    2.170831    2.172270
 

........................................................................
.............................. CYCLE   21 ..............................
........................................................................

 iter      E             dE          RMSdq      gap      omega  full diag
   1   -214.1002089 -0.214100E+03  0.470E-02    2.34       0.0  T
   2   -214.1002124 -0.356581E-05  0.264E-02    2.34       1.0  T
   3   -214.1002125 -0.905911E-07  0.462E-03    2.34       1.8  T
   4   -214.1002137 -0.112396E-05  0.264E-03    2.34       3.2  T
   5   -214.1002138 -0.145829E-06  0.132E-03    2.34       6.4  T
   6   -214.1002138 -0.229174E-07  0.978E-04    2.34       8.6  T
   7   -214.1002138 -0.134016E-07  0.528E-04    2.34      15.9  T
     SCC iter.                  ...        0 min,  0.125 sec
     gradient                   ...        0 min,  0.042 sec
 * total energy  :  -211.1179390 Eh     change       -0.1699576E-03 Eh
   gradient norm :     0.0054074 Eh/α   predicted     0.0000000E+00 (-100.00%)
   displ. norm   :     0.0777897 α      lambda       -0.1283560E-03
   maximum displ.:     0.0316787 α      in ANC's #20, #22, #2, ...

........................................................................
.............................. CYCLE   22 ..............................
........................................................................

 iter      E             dE          RMSdq      gap      omega  full diag
   1   -214.1008519 -0.214101E+03  0.153E-02    2.34       0.0  T
   2   -214.1008523 -0.360699E-06  0.888E-03    2.34       1.0  T
   3   -214.1008522  0.137667E-06  0.174E-03    2.34       4.8  T
   4   -214.1008524 -0.245656E-06  0.711E-04    2.34      11.8  T
   5   -214.1008524 -0.113441E-07  0.379E-04    2.34      22.1  T
     SCC iter.                  ...        0 min,  0.096 sec
     gradient                   ...        0 min,  0.031 sec
 * total energy  :  -211.1180464 Eh     change       -0.1074382E-03 Eh
   gradient norm :     0.0027550 Eh/α   predicted    -0.6540478E-04 ( -39.12%)
   displ. norm   :     0.2446019 α      lambda       -0.2538199E-03
   maximum displ.:     0.1042714 α      in ANC's #20, #22, #2, ...

........................................................................
.............................. CYCLE   23 ..............................
........................................................................

 iter      E             dE          RMSdq      gap      omega  full diag
   1   -214.1014721 -0.214101E+03  0.404E-02    2.34       0.0  T
   2   -214.1014749 -0.273014E-05  0.232E-02    2.35       1.0  T
   3   -214.1014741  0.740053E-06  0.472E-03    2.34       1.8  T
   4   -214.1014757 -0.158040E-05  0.219E-03    2.35       3.8  T
   5   -214.1014758 -0.945980E-07  0.120E-03    2.35       7.0  T
   6   -214.1014758 -0.210580E-07  0.859E-04    2.35       9.8  T
   7   -214.1014758 -0.126010E-07  0.592E-04    2.35      14.2  T
     SCC iter.                  ...        0 min,  0.127 sec
     gradient                   ...        0 min,  0.031 sec
 * total energy  :  -211.1182182 Eh     change       -0.1718062E-03 Eh
   gradient norm :     0.0032760 Eh/α   predicted    -0.1345072E-03 ( -21.71%)
   displ. norm   :     0.2408591 α      lambda       -0.1398456E-03
   maximum displ.:     0.1062658 α      in ANC's #20, #22, #2, ...

........................................................................
.............................. CYCLE   24 ..............................
........................................................................

 iter      E             dE          RMSdq      gap      omega  full diag
   1   -214.1013586 -0.214101E+03  0.322E-02    2.35       0.0  T
   2   -214.1013604 -0.175137E-05  0.187E-02    2.35       1.0  T
   3   -214.1013597  0.622918E-06  0.386E-03    2.35       2.2  T
   4   -214.1013610 -0.122283E-05  0.165E-03    2.35       5.1  T
   5   -214.1013610 -0.442388E-07  0.934E-04    2.35       9.0  T
   6   -214.1013610 -0.129222E-07  0.670E-04    2.35      12.5  T
     SCC iter.                  ...        0 min,  0.133 sec
     gradient                   ...        0 min,  0.033 sec
 * total energy  :  -211.1183336 Eh     change       -0.1153253E-03 Eh
   gradient norm :     0.0048445 Eh/α   predicted    -0.7397954E-04 ( -35.85%)
   displ. norm   :     0.4309355 α      lambda       -0.2401132E-03
   maximum displ.:     0.1830661 α      in ANC's #20, #22, #2, ...

........................................................................
.............................. CYCLE   25 ..............................
........................................................................

 iter      E             dE          RMSdq      gap      omega  full diag
   1   -214.1004306 -0.214100E+03  0.514E-02    2.35       0.0  T
   2   -214.1004349 -0.426700E-05  0.300E-02    2.35       1.0  T
   3   -214.1004332  0.173859E-05  0.615E-03    2.35       1.4  T
   4   -214.1004365 -0.329938E-05  0.260E-03    2.35       3.2  T
   5   -214.1004366 -0.980074E-07  0.150E-03    2.35       5.6  T
   6   -214.1004366 -0.347835E-07  0.107E-03    2.35       7.8  T
   7   -214.1004366 -0.194333E-07  0.728E-04    2.35      11.5  T
   8   -214.1004366 -0.172307E-07  0.257E-04    2.35      32.7  T
     SCC iter.                  ...        0 min,  0.151 sec
     gradient                   ...        0 min,  0.036 sec
 * total energy  :  -211.1185326 Eh     change       -0.1990681E-03 Eh
   gradient norm :     0.0057550 Eh/α   predicted    -0.1423560E-03 ( -28.49%)
   displ. norm   :     0.5433039 α      lambda       -0.3010079E-03
   maximum displ.:     0.2228232 α      in ANC's #20, #22, #2, ...

........................................................................
.............................. CYCLE   26 ..............................
........................................................................

 iter      E             dE          RMSdq      gap      omega  full diag
   1   -214.0987753 -0.214099E+03  0.600E-02    2.34       0.0  T
   2   -214.0987809 -0.551476E-05  0.351E-02    2.34       1.0  T
   3   -214.0987779  0.290919E-05  0.727E-03    2.34       1.2  T
   4   -214.0987830 -0.502515E-05  0.291E-03    2.34       2.9  T
   5   -214.0987831 -0.114176E-06  0.166E-03    2.34       5.0  T
   6   -214.0987831 -0.444774E-07  0.118E-03    2.34       7.1  T
   7   -214.0987831 -0.235860E-07  0.807E-04    2.34      10.4  T
   8   -214.0987832 -0.207400E-07  0.290E-04    2.34      28.9  T
     SCC iter.                  ...        0 min,  0.152 sec
     gradient                   ...        0 min,  0.031 sec
 * total energy  :  -211.1187540 Eh     change       -0.2213756E-03 Eh
   gradient norm :     0.0071775 Eh/α   predicted    -0.1949443E-03 ( -11.94%)
   displ. norm   :     0.3632980 α      lambda       -0.2674839E-03
   maximum displ.:     0.1367955 α      in ANC's #2, #20, #22, ...

........................................................................
.............................. CYCLE   27 ..............................
........................................................................

 iter      E             dE          RMSdq      gap      omega  full diag
   1   -214.0995525 -0.214100E+03  0.396E-02    2.34       0.0  T
   2   -214.0995546 -0.212723E-05  0.230E-02    2.34       1.0  T
   3   -214.0995534  0.114666E-05  0.484E-03    2.34       1.7  T
   4   -214.0995554 -0.198455E-05  0.216E-03    2.34       3.9  T
   5   -214.0995555 -0.683027E-07  0.127E-03    2.34       6.6  T
   6   -214.0995555 -0.261868E-07  0.922E-04    2.34       9.1  T
   7   -214.0995555 -0.157131E-07  0.601E-04    2.34      14.0  T
     SCC iter.                  ...        0 min,  0.126 sec
     gradient                   ...        0 min,  0.031 sec
 * total energy  :  -211.1189617 Eh     change       -0.2077085E-03 Eh
   gradient norm :     0.0064751 Eh/α   predicted    -0.1513961E-03 ( -27.11%)
   displ. norm   :     0.3033310 α      lambda       -0.3138097E-03
   maximum displ.:     0.1293583 α      in ANC's #2, #3, #12, ...

........................................................................
.............................. CYCLE   28 ..............................
........................................................................

 iter      E             dE          RMSdq      gap      omega  full diag
   1   -214.1026229 -0.214103E+03  0.406E-02    2.34       0.0  T
   2   -214.1026251 -0.223277E-05  0.233E-02    2.34       1.0  T
   3   -214.1026246  0.517229E-06  0.459E-03    2.34       1.8  T
   4   -214.1026259 -0.128967E-05  0.246E-03    2.34       3.4  T
   5   -214.1026260 -0.116173E-06  0.141E-03    2.34       5.9  T
   6   -214.1026261 -0.315078E-07  0.103E-03    2.34       8.1  T
   7   -214.1026261 -0.191806E-07  0.630E-04    2.34      13.3  T
   8   -214.1026261 -0.131762E-07  0.245E-04    2.34      34.2  T
     SCC iter.                  ...        0 min,  0.146 sec
     gradient                   ...        0 min,  0.032 sec
 * total energy  :  -211.1191658 Eh     change       -0.2040452E-03 Eh
   gradient norm :     0.0047085 Eh/α   predicted    -0.1713435E-03 ( -16.03%)
   displ. norm   :     0.4457014 α      lambda       -0.1935942E-03
   maximum displ.:     0.1834513 α      in ANC's #2, #20, #3, ...

........................................................................
.............................. CYCLE   29 ..............................
........................................................................

 iter      E             dE          RMSdq      gap      omega  full diag
   1   -214.1004338 -0.214100E+03  0.457E-02    2.34       0.0  T
   2   -214.1004368 -0.299108E-05  0.268E-02    2.34       1.0  T
   3   -214.1004345  0.232257E-05  0.582E-03    2.34       1.4  T
   4   -214.1004380 -0.354578E-05  0.220E-03    2.34       3.8  T
   5   -214.1004381 -0.583167E-07  0.130E-03    2.34       6.4  T
   6   -214.1004381 -0.297064E-07  0.915E-04    2.34       9.2  T
   7   -214.1004381 -0.143629E-07  0.622E-04    2.34      13.5  T
     SCC iter.                  ...        0 min,  0.127 sec
     gradient                   ...        0 min,  0.033 sec
 * total energy  :  -211.1192983 Eh     change       -0.1325151E-03 Eh
   gradient norm :     0.0057562 Eh/α   predicted    -0.1160477E-03 ( -12.43%)
   displ. norm   :     0.2950356 α      lambda       -0.2021696E-03
   maximum displ.:     0.1417257 α      in ANC's #2, #3, #12, ...

........................................................................
.............................. CYCLE   30 ..............................
........................................................................

 iter      E             dE          RMSdq      gap      omega  full diag
   1   -214.1015991 -0.214102E+03  0.347E-02    2.35       0.0  T
   2   -214.1016012 -0.204736E-05  0.200E-02    2.35       1.0  T
   3   -214.1016005  0.654951E-06  0.382E-03    2.35       2.2  T
   4   -214.1016019 -0.136109E-05  0.153E-03    2.35       5.5  T
   5   -214.1016019 -0.353066E-07  0.649E-04    2.35      12.9  T
   6   -214.1016019 -0.896719E-08  0.451E-04    2.35      18.6  T
     SCC iter.                  ...        0 min,  0.123 sec
     gradient                   ...        0 min,  0.032 sec
 * total energy  :  -211.1194531 Eh     change       -0.1548463E-03 Eh
   gradient norm :     0.0043895 Eh/α   predicted    -0.1098851E-03 ( -29.04%)
   displ. norm   :     0.3753273 α      lambda       -0.2178385E-03
   maximum displ.:     0.1808521 α      in ANC's #2, #12, #3, ...

........................................................................
.............................. CYCLE   31 ..............................
........................................................................

 iter      E             dE          RMSdq      gap      omega  full diag
   1   -214.1020521 -0.214102E+03  0.459E-02    2.35       0.0  T
   2   -214.1020555 -0.341336E-05  0.266E-02    2.35       1.0  T
   3   -214.1020543  0.120338E-05  0.516E-03    2.35       1.6  T
   4   -214.1020567 -0.240796E-05  0.199E-03    2.35       4.2  T
   5   -214.1020567 -0.600446E-07  0.873E-04    2.35       9.6  T
   6   -214.1020568 -0.142634E-07  0.612E-04    2.35      13.7  T
     SCC iter.                  ...        0 min,  0.109 sec
     gradient                   ...        0 min,  0.031 sec
 * total energy  :  -211.1196268 Eh     change       -0.1736716E-03 Eh
   gradient norm :     0.0040396 Eh/α   predicted    -0.1242639E-03 ( -28.45%)
   displ. norm   :     0.4468333 α      lambda       -0.2377581E-03
   maximum displ.:     0.2157306 α      in ANC's #2, #12, #17, ...

........................................................................
.............................. CYCLE   32 ..............................
........................................................................

 iter      E             dE          RMSdq      gap      omega  full diag
   1   -214.1023880 -0.214102E+03  0.614E-02    2.35       0.0  T
   2   -214.1023935 -0.551123E-05  0.354E-02    2.35       1.0  T
   3   -214.1023924  0.108179E-05  0.613E-03    2.35       1.4  T
   4   -214.1023954 -0.304468E-05  0.267E-03    2.35       3.1  T
   5   -214.1023955 -0.114972E-06  0.119E-03    2.35       7.1  T
   6   -214.1023956 -0.226168E-07  0.894E-04    2.35       9.4  T
   7   -214.1023956 -0.121399E-07  0.602E-04    2.35      13.9  T
     SCC iter.                  ...        0 min,  0.125 sec
     gradient                   ...        0 min,  0.036 sec
 * total energy  :  -211.1198181 Eh     change       -0.1912729E-03 Eh
   gradient norm :     0.0044041 Eh/α   predicted    -0.1426139E-03 ( -25.44%)
   displ. norm   :     0.5721960 α      lambda       -0.2440098E-03
   maximum displ.:     0.2785570 α      in ANC's #2, #12, #17, ...

........................................................................
.............................. CYCLE   33 ..............................
........................................................................

 iter      E             dE          RMSdq      gap      omega  full diag
   1   -214.1005121 -0.214101E+03  0.766E-02    2.36       0.0  T
   2   -214.1005202 -0.807222E-05  0.441E-02    2.36       1.0  T
   3   -214.1005184  0.176658E-05  0.756E-03    2.36       1.1  T
   4   -214.1005231 -0.472789E-05  0.345E-03    2.36       2.4  T
   5   -214.1005233 -0.196066E-06  0.155E-03    2.36       5.4  T
   6   -214.1005234 -0.353918E-07  0.120E-03    2.36       7.0  T
   7   -214.1005234 -0.238575E-07  0.750E-04    2.36      11.2  T
   8   -214.1005234 -0.194437E-07  0.299E-04    2.36      28.1  T
     SCC iter.                  ...        0 min,  0.170 sec
     gradient                   ...        0 min,  0.033 sec
 * total energy  :  -211.1200085 Eh     change       -0.1904692E-03 Eh
   gradient norm :     0.0054606 Eh/α   predicted    -0.1619488E-03 ( -14.97%)
   displ. norm   :     0.5052125 α      lambda       -0.2894600E-03
   maximum displ.:     0.2280278 α      in ANC's #2, #12, #30, ...

........................................................................
.............................. CYCLE   34 ..............................
........................................................................

 iter      E             dE          RMSdq      gap      omega  full diag
   1   -214.1032940 -0.214103E+03  0.919E-02    2.36       0.0  T
   2   -214.1033049 -0.108984E-04  0.523E-02    2.36       1.0  T
   3   -214.1033068 -0.190891E-05  0.633E-03    2.36       1.3  T
   4   -214.1033083 -0.151448E-05  0.360E-03    2.36       2.3  T
   5   -214.1033087 -0.372779E-06  0.148E-03    2.36       5.7  T
   6   -214.1033087 -0.298535E-07  0.115E-03    2.36       7.3  T
   7   -214.1033088 -0.205530E-07  0.685E-04    2.36      12.2  T
   8   -214.1033088 -0.153248E-07  0.290E-04    2.36      29.0  T
     SCC iter.                  ...        0 min,  0.155 sec
     gradient                   ...        0 min,  0.031 sec
 * total energy  :  -211.1201237 Eh     change       -0.1151182E-03 Eh
   gradient norm :     0.0060890 Eh/α   predicted    -0.1816745E-03 (  57.82%)
   displ. norm   :     0.4777159 α      lambda       -0.2313266E-03
   maximum displ.:     0.2402518 α      in ANC's #2, #12, #3, ...

........................................................................
.............................. CYCLE   35 ..............................
........................................................................

 iter      E             dE          RMSdq      gap      omega  full diag
   1   -214.0992508 -0.214099E+03  0.554E-02    2.36       0.0  T
   2   -214.0992554 -0.460950E-05  0.321E-02    2.36       1.0  T
   3   -214.0992534  0.202213E-05  0.678E-03    2.36       1.2  T
   4   -214.0992572 -0.381758E-05  0.322E-03    2.36       2.6  T
   5   -214.0992574 -0.165547E-06  0.173E-03    2.36       4.9  T
   6   -214.0992574 -0.484102E-07  0.130E-03    2.36       6.5  T
   7   -214.0992575 -0.279930E-07  0.827E-04    2.36      10.2  T
   8   -214.0992575 -0.227774E-07  0.310E-04    2.36      27.0  T
     SCC iter.                  ...        0 min,  0.146 sec
     gradient                   ...        0 min,  0.032 sec
 * total energy  :  -211.1202455 Eh     change       -0.1218236E-03 Eh
   gradient norm :     0.0055337 Eh/α   predicted    -0.1420614E-03 (  16.61%)
   displ. norm   :     0.0992523 α      lambda       -0.9628942E-04
   maximum displ.:     0.0541273 α      in ANC's #2, #20, #4, ...

........................................................................
.............................. CYCLE   36 ..............................
........................................................................

 iter      E             dE          RMSdq      gap      omega  full diag
   1   -214.1020668 -0.214102E+03  0.148E-02    2.36       0.0  T
   2   -214.1020673 -0.449550E-06  0.827E-03    2.36       1.0  T
   3   -214.1020672  0.439452E-07  0.196E-03    2.36       4.3  T
   4   -214.1020674 -0.189425E-06  0.109E-03    2.36       7.7  T
   5   -214.1020674 -0.208383E-07  0.626E-04    2.36      13.4  T
   6   -214.1020674 -0.585911E-08  0.461E-04    2.36      18.2  T
     SCC iter.                  ...        0 min,  0.109 sec
     gradient                   ...        0 min,  0.033 sec
 * total energy  :  -211.1203211 Eh     change       -0.7565888E-04 Eh
   gradient norm :     0.0033533 Eh/α   predicted    -0.4862054E-04 ( -35.74%)
   displ. norm   :     0.3471322 α      lambda       -0.1481739E-03
   maximum displ.:     0.2020465 α      in ANC's #2, #12, #6, ...

........................................................................
.............................. CYCLE   37 ..............................
........................................................................

 iter      E             dE          RMSdq      gap      omega  full diag
   1   -214.1038069 -0.214104E+03  0.429E-02    2.36       0.0  T
   2   -214.1038098 -0.291939E-05  0.243E-02    2.36       1.0  T
   3   -214.1038098 -0.325377E-07  0.434E-03    2.36       1.9  T
   4   -214.1038108 -0.937634E-06  0.254E-03    2.36       3.3  T
   5   -214.1038109 -0.143754E-06  0.133E-03    2.36       6.3  T
   6   -214.1038109 -0.231230E-07  0.101E-03    2.36       8.3  T
   7   -214.1038109 -0.185283E-07  0.584E-04    2.36      14.4  T
   8   -214.1038110 -0.117027E-07  0.205E-04    2.36      41.0  T
     SCC iter.                  ...        0 min,  0.182 sec
     gradient                   ...        0 min,  0.032 sec
 * total energy  :  -211.1204304 Eh     change       -0.1092327E-03 Eh
   gradient norm :     0.0030454 Eh/α   predicted    -0.8302074E-04 ( -24.00%)
   displ. norm   :     0.4094598 α      lambda       -0.1093491E-03
   maximum displ.:     0.2398959 α      in ANC's #2, #12, #6, ...

........................................................................
.............................. CYCLE   38 ..............................
........................................................................

 iter      E             dE          RMSdq      gap      omega  full diag
   1   -214.1033193 -0.214103E+03  0.473E-02    2.36       0.0  T
   2   -214.1033225 -0.325635E-05  0.269E-02    2.36       1.0  T
   3   -214.1033223  0.197384E-06  0.446E-03    2.36       1.9  T
   4   -214.1033236 -0.129143E-05  0.238E-03    2.36       3.5  T
   5   -214.1033238 -0.118854E-06  0.113E-03    2.36       7.4  T
   6   -214.1033238 -0.183259E-07  0.883E-04    2.36       9.5  T
   7   -214.1033238 -0.127625E-07  0.541E-04    2.36      15.5  T
     SCC iter.                  ...        0 min,  0.128 sec
     gradient                   ...        0 min,  0.032 sec
 * total energy  :  -211.1205166 Eh     change       -0.8626281E-04 Eh
   gradient norm :     0.0034430 Eh/α   predicted    -0.6384493E-04 ( -25.99%)
   displ. norm   :     0.3856705 α      lambda       -0.1081111E-03
   maximum displ.:     0.2318001 α      in ANC's #2, #12, #6, ...

........................................................................
.............................. CYCLE   39 ..............................
........................................................................

 iter      E             dE          RMSdq      gap      omega  full diag
   1   -214.1033766 -0.214103E+03  0.427E-02    2.37       0.0  T
   2   -214.1033792 -0.259919E-05  0.244E-02    2.37       1.0  T
   3   -214.1033791  0.744871E-07  0.366E-03    2.37       2.3  T
   4   -214.1033801 -0.922005E-06  0.186E-03    2.37       4.5  T
   5   -214.1033801 -0.772020E-07  0.822E-04    2.37      10.2  T
   6   -214.1033802 -0.944439E-08  0.626E-04    2.37      13.4  T
     SCC iter.                  ...        0 min,  0.109 sec
     gradient                   ...        0 min,  0.031 sec
 * total energy  :  -211.1205992 Eh     change       -0.8258178E-04 Eh
   gradient norm :     0.0026761 Eh/α   predicted    -0.6209718E-04 ( -24.81%)
   displ. norm   :     0.4115858 α      lambda       -0.8952386E-04
   maximum displ.:     0.2490110 α      in ANC's #2, #12, #6, ...

........................................................................
.............................. CYCLE   40 ..............................
........................................................................

 iter      E             dE          RMSdq      gap      omega  full diag
   1   -214.1022126 -0.214102E+03  0.426E-02    2.37       0.0  T
   2   -214.1022151 -0.246083E-05  0.245E-02    2.37       1.0  T
   3   -214.1022146  0.410381E-06  0.414E-03    2.37       2.0  T
   4   -214.1022159 -0.128304E-05  0.210E-03    2.37       4.0  T
   5   -214.1022160 -0.817292E-07  0.105E-03    2.37       8.0  T
   6   -214.1022160 -0.161392E-07  0.809E-04    2.37      10.4  T
   7   -214.1022160 -0.110078E-07  0.491E-04    2.37      17.1  T
     SCC iter.                  ...        0 min,  0.142 sec
     gradient                   ...        0 min,  0.034 sec
 * total energy  :  -211.1206635 Eh     change       -0.6430572E-04 Eh
   gradient norm :     0.0025142 Eh/α   predicted    -0.5234928E-04 ( -18.59%)
   displ. norm   :     0.2720431 α      lambda       -0.6620275E-04
   maximum displ.:     0.1675046 α      in ANC's #2, #15, #12, ...

........................................................................
.............................. CYCLE   41 ..............................
........................................................................

 iter      E             dE          RMSdq      gap      omega  full diag
   1   -214.1037083 -0.214104E+03  0.260E-02    2.37       0.0  T
   2   -214.1037093 -0.102581E-05  0.149E-02    2.37       1.0  T
   3   -214.1037093  0.272122E-07  0.234E-03    2.37       3.6  T
   4   -214.1037096 -0.351149E-06  0.119E-03    2.37       7.0  T
   5   -214.1037097 -0.306025E-07  0.581E-04    2.37      14.4  T
   6   -214.1037097 -0.561536E-08  0.418E-04    2.37      20.1  T
     SCC iter.                  ...        0 min,  0.150 sec
     gradient                   ...        0 min,  0.034 sec
 * total energy  :  -211.1207047 Eh     change       -0.4116656E-04 Eh
   gradient norm :     0.0022579 Eh/α   predicted    -0.3555269E-04 ( -13.64%)
   displ. norm   :     0.2546504 α      lambda       -0.4473739E-04
   maximum displ.:     0.1586855 α      in ANC's #2, #12, #17, ...

........................................................................
.............................. CYCLE   42 ..............................
........................................................................

 iter      E             dE          RMSdq      gap      omega  full diag
   1   -214.1026193 -0.214103E+03  0.236E-02    2.37       0.0  T
   2   -214.1026200 -0.678400E-06  0.136E-02    2.37       1.0  T
   3   -214.1026197  0.218138E-06  0.264E-03    2.37       3.2  T
   4   -214.1026202 -0.478397E-06  0.139E-03    2.37       6.0  T
   5   -214.1026203 -0.328452E-07  0.757E-04    2.37      11.1  T
   6   -214.1026203 -0.910927E-08  0.582E-04    2.37      14.4  T
     SCC iter.                  ...        0 min,  0.109 sec
     gradient                   ...        0 min,  0.032 sec
 * total energy  :  -211.1207339 Eh     change       -0.2916644E-04 Eh
   gradient norm :     0.0024520 Eh/α   predicted    -0.2381943E-04 ( -18.33%)
   displ. norm   :     0.1808261 α      lambda       -0.4993706E-04
   maximum displ.:     0.1085582 α      in ANC's #2, #13, #17, ...
 * RMSD in coord.:     0.5543893 α      energy gain  -0.2964817E-02 Eh

generating ANC from model Hessian ...
Using Lindh-Hessian (1995)
 Shifting diagonal of input Hessian by   1.002663761830003E-002
 Lowest  eigenvalues of input Hessian
    0.010000    0.000000    0.000000    0.000000    0.000000    0.000000
    0.000000    0.010054    0.010108    0.010189    0.010211    0.010313
    0.010357    0.010415    0.010431    0.010542    0.010748    0.010830
 Highest eigenvalues
    2.144527    2.147651    2.167289    2.169825    2.171275    2.171965
 

........................................................................
.............................. CYCLE   43 ..............................
........................................................................

 iter      E             dE          RMSdq      gap      omega  full diag
   1   -214.1031241 -0.214103E+03  0.157E-02    2.37       0.0  T
   2   -214.1031245 -0.356016E-06  0.891E-03    2.37       1.0  T
   3   -214.1031244  0.873751E-07  0.183E-03    2.37       4.6  T
   4   -214.1031246 -0.217359E-06  0.960E-04    2.37       8.7  T
   5   -214.1031246 -0.163694E-07  0.499E-04    2.37      16.8  T
     SCC iter.                  ...        0 min,  0.090 sec
     gradient                   ...        0 min,  0.032 sec
 * total energy  :  -211.1207703 Eh     change       -0.3640250E-04 Eh
   gradient norm :     0.0020373 Eh/α   predicted     0.0000000E+00 (-100.00%)
   displ. norm   :     0.0318839 α      lambda       -0.4130099E-05
   maximum displ.:     0.0137368 α      in ANC's #10, #2, #14, ...

........................................................................
.............................. CYCLE   44 ..............................
........................................................................

 iter      E             dE          RMSdq      gap      omega  full diag
   1   -214.1032640 -0.214103E+03  0.597E-03    2.37       0.0  T
   2   -214.1032641 -0.700300E-07  0.342E-03    2.37       2.5  T
   3   -214.1032641 -0.564657E-08  0.564E-04    2.37      14.9  T
   4   -214.1032641 -0.155023E-07  0.316E-04    2.37      26.6  T
     SCC iter.                  ...        0 min,  0.073 sec
     gradient                   ...        0 min,  0.033 sec
 * total energy  :  -211.1207881 Eh     change       -0.1781488E-04 Eh
   gradient norm :     0.0009887 Eh/α   predicted    -0.1067230E-04 ( -40.09%)
   displ. norm   :     0.1650114 α      lambda       -0.4654210E-04
   maximum displ.:     0.0751137 α      in ANC's #10, #2, #14, ...

........................................................................
.............................. CYCLE   45 ..............................
........................................................................

 iter      E             dE          RMSdq      gap      omega  full diag
   1   -214.1035180 -0.214104E+03  0.277E-02    2.37       0.0  T
   2   -214.1035194 -0.137752E-05  0.158E-02    2.37       1.0  T
   3   -214.1035195 -0.143575E-06  0.236E-03    2.37       3.6  T
   4   -214.1035198 -0.266406E-06  0.127E-03    2.37       6.6  T
   5   -214.1035199 -0.392261E-07  0.567E-04    2.37      14.8  T
   6   -214.1035199 -0.558774E-08  0.385E-04    2.37      21.8  T
     SCC iter.                  ...        0 min,  0.130 sec
     gradient                   ...        0 min,  0.031 sec
 * total energy  :  -211.1208232 Eh     change       -0.3513953E-04 Eh
   gradient norm :     0.0026835 Eh/α   predicted    -0.2355291E-04 ( -32.97%)
   displ. norm   :     0.0488221 α      lambda       -0.1568651E-04
   maximum displ.:     0.0257396 α      in ANC's #10, #2, #14, ...

........................................................................
.............................. CYCLE   46 ..............................
........................................................................

 iter      E             dE          RMSdq      gap      omega  full diag
   1   -214.1035484 -0.214104E+03  0.713E-03    2.37       0.0  T
   2   -214.1035485 -0.877657E-07  0.404E-03    2.37       2.1  T
   3   -214.1035485 -0.947733E-08  0.644E-04    2.37      13.0  T
   4   -214.1035485 -0.186744E-07  0.362E-04    2.37      23.2  T
     SCC iter.                  ...        0 min,  0.082 sec
     gradient                   ...        0 min,  0.031 sec
 * total energy  :  -211.1208384 Eh     change       -0.1518743E-04 Eh
   gradient norm :     0.0021082 Eh/α   predicted    -0.8263594E-05 ( -45.59%)
   displ. norm   :     0.1837677 α      lambda       -0.5643807E-04
   maximum displ.:     0.0956773 α      in ANC's #10, #2, #14, ...

........................................................................
.............................. CYCLE   47 ..............................
........................................................................

 iter      E             dE          RMSdq      gap      omega  full diag
   1   -214.1035245 -0.214104E+03  0.262E-02    2.37       0.0  T
   2   -214.1035256 -0.115413E-05  0.148E-02    2.37       1.0  T
   3   -214.1035258 -0.145692E-06  0.226E-03    2.37       3.7  T
   4   -214.1035260 -0.209190E-06  0.126E-03    2.37       6.6  T
   5   -214.1035260 -0.340623E-07  0.609E-04    2.37      13.8  T
   6   -214.1035260 -0.546262E-08  0.432E-04    2.37      19.4  T
     SCC iter.                  ...        0 min,  0.107 sec
     gradient                   ...        0 min,  0.031 sec
 * total energy  :  -211.1208792 Eh     change       -0.4079915E-04 Eh
   gradient norm :     0.0009595 Eh/α   predicted    -0.2917223E-04 ( -28.50%)
   displ. norm   :     0.2622949 α      lambda       -0.2905573E-04
   maximum displ.:     0.1401263 α      in ANC's #10, #2, #3, ...

........................................................................
.............................. CYCLE   48 ..............................
........................................................................

 iter      E             dE          RMSdq      gap      omega  full diag
   1   -214.1033227 -0.214103E+03  0.353E-02    2.37       0.0  T
   2   -214.1033247 -0.201948E-05  0.199E-02    2.37       1.0  T
   3   -214.1033250 -0.310945E-06  0.298E-03    2.37       2.8  T
   4   -214.1033254 -0.326713E-06  0.172E-03    2.37       4.9  T
   5   -214.1033254 -0.666901E-07  0.830E-04    2.37      10.1  T
   6   -214.1033254 -0.975604E-08  0.595E-04    2.37      14.1  T
     SCC iter.                  ...        0 min,  0.112 sec
     gradient                   ...        0 min,  0.031 sec
 * total energy  :  -211.1209081 Eh     change       -0.2892147E-04 Eh
   gradient norm :     0.0022001 Eh/α   predicted    -0.1497219E-04 ( -48.23%)
   displ. norm   :     0.1011771 α      lambda       -0.1902910E-04
   maximum displ.:     0.0570364 α      in ANC's #10, #2, #3, ...

........................................................................
.............................. CYCLE   49 ..............................
........................................................................

 iter      E             dE          RMSdq      gap      omega  full diag
   1   -214.1035691 -0.214104E+03  0.118E-02    2.37       0.0  T
   2   -214.1035693 -0.199406E-06  0.672E-03    2.37       1.2  T
   3   -214.1035694 -0.306569E-07  0.105E-03    2.37       8.0  T
   4   -214.1035694 -0.388001E-07  0.648E-04    2.37      13.0  T
   5   -214.1035694 -0.969595E-08  0.336E-04    2.37      25.0  T
     SCC iter.                  ...        0 min,  0.090 sec
     gradient                   ...        0 min,  0.033 sec
 * total energy  :  -211.1209259 Eh     change       -0.1773456E-04 Eh
   gradient norm :     0.0018414 Eh/α   predicted    -0.9612800E-05 ( -45.80%)
   displ. norm   :     0.2857022 α      lambda       -0.4530513E-04
   maximum displ.:     0.1650400 α      in ANC's #10, #2, #3, ...

........................................................................
.............................. CYCLE   50 ..............................
........................................................................

 iter      E             dE          RMSdq      gap      omega  full diag
   1   -214.1043062 -0.214104E+03  0.291E-02    2.37       0.0  T
   2   -214.1043072 -0.956309E-06  0.166E-02    2.37       1.0  T
   3   -214.1043073 -0.645134E-07  0.247E-03    2.38       3.4  T
   4   -214.1043075 -0.275618E-06  0.145E-03    2.37       5.8  T
   5   -214.1043076 -0.494873E-07  0.723E-04    2.38      11.6  T
   6   -214.1043076 -0.654714E-08  0.518E-04    2.38      16.2  T
     SCC iter.                  ...        0 min,  0.115 sec
     gradient                   ...        0 min,  0.032 sec
 * total energy  :  -211.1209785 Eh     change       -0.5264546E-04 Eh
   gradient norm :     0.0010672 Eh/α   predicted    -0.2347458E-04 ( -55.41%)
   displ. norm   :     0.3369621 α      lambda       -0.3798849E-04
   maximum displ.:     0.1996189 α      in ANC's #10, #2, #3, ...

........................................................................
.............................. CYCLE   51 ..............................
........................................................................

 iter      E             dE          RMSdq      gap      omega  full diag
   1   -214.1040656 -0.214104E+03  0.303E-02    2.38       0.0  T
   2   -214.1040666 -0.971329E-06  0.174E-02    2.38       1.0  T
   3   -214.1040665  0.732394E-07  0.276E-03    2.38       3.0  T
   4   -214.1040670 -0.435528E-06  0.151E-03    2.38       5.6  T
   5   -214.1040670 -0.481739E-07  0.740E-04    2.38      11.3  T
   6   -214.1040670 -0.638690E-08  0.513E-04    2.38      16.3  T
     SCC iter.                  ...        0 min,  0.123 sec
     gradient                   ...        0 min,  0.031 sec
 * total energy  :  -211.1210283 Eh     change       -0.4980267E-04 Eh
   gradient norm :     0.0016639 Eh/α   predicted    -0.1995509E-04 ( -59.93%)
   displ. norm   :     0.3615884 α      lambda       -0.4320302E-04
   maximum displ.:     0.2163059 α      in ANC's #10, #2, #3, ...

........................................................................
.............................. CYCLE   52 ..............................
........................................................................

 iter      E             dE          RMSdq      gap      omega  full diag
   1   -214.1040785 -0.214104E+03  0.289E-02    2.38       0.0  T
   2   -214.1040794 -0.852152E-06  0.166E-02    2.38       1.0  T
   3   -214.1040792  0.199783E-06  0.286E-03    2.38       2.9  T
   4   -214.1040797 -0.528891E-06  0.149E-03    2.38       5.6  T
   5   -214.1040798 -0.434210E-07  0.733E-04    2.38      11.5  T
   6   -214.1040798 -0.639488E-08  0.496E-04    2.38      16.9  T
     SCC iter.                  ...        0 min,  0.108 sec
     gradient                   ...        0 min,  0.032 sec
 * total energy  :  -211.1210865 Eh     change       -0.5821817E-04 Eh
   gradient norm :     0.0016206 Eh/α   predicted    -0.2285920E-04 ( -60.74%)
   displ. norm   :     0.4514031 α      lambda       -0.5779176E-04
   maximum displ.:     0.2701041 α      in ANC's #10, #2, #3, ...

........................................................................
.............................. CYCLE   53 ..............................
........................................................................

 iter      E             dE          RMSdq      gap      omega  full diag
   1   -214.1039192 -0.214104E+03  0.349E-02    2.38       0.0  T
   2   -214.1039206 -0.132151E-05  0.201E-02    2.38       1.0  T
   3   -214.1039201  0.435301E-06  0.360E-03    2.38       2.3  T
   4   -214.1039211 -0.945847E-06  0.178E-03    2.38       4.7  T
   5   -214.1039211 -0.586406E-07  0.853E-04    2.38       9.8  T
   6   -214.1039211 -0.894693E-08  0.579E-04    2.38      14.5  T
     SCC iter.                  ...        0 min,  0.109 sec
     gradient                   ...        0 min,  0.032 sec
 * total energy  :  -211.1211612 Eh     change       -0.7467084E-04 Eh
   gradient norm :     0.0013234 Eh/α   predicted    -0.3151721E-04 ( -57.79%)
   displ. norm   :     0.6041901 α      lambda       -0.7306181E-04
   maximum displ.:     0.3607461 α      in ANC's #10, #2, #3, ...

........................................................................
.............................. CYCLE   54 ..............................
........................................................................

 iter      E             dE          RMSdq      gap      omega  full diag
   1   -214.1032937 -0.214103E+03  0.468E-02    2.38       0.0  T
   2   -214.1032961 -0.241222E-05  0.269E-02    2.38       1.0  T
   3   -214.1032952  0.842053E-06  0.482E-03    2.38       1.7  T
   4   -214.1032970 -0.174630E-05  0.233E-03    2.38       3.6  T
   5   -214.1032971 -0.993645E-07  0.108E-03    2.38       7.7  T
   6   -214.1032971 -0.156081E-07  0.742E-04    2.38      11.3  T
   7   -214.1032971 -0.574698E-08  0.440E-04    2.38      19.1  T
     SCC iter.                  ...        0 min,  0.132 sec
     gradient                   ...        0 min,  0.032 sec
 * total energy  :  -211.1212406 Eh     change       -0.7936582E-04 Eh
   gradient norm :     0.0018665 Eh/α   predicted    -0.4246334E-04 ( -46.50%)
   displ. norm   :     0.4189010 α      lambda       -0.4829565E-04
   maximum displ.:     0.2399894 α      in ANC's #2, #10, #3, ...

........................................................................
.............................. CYCLE   55 ..............................
........................................................................

 iter      E             dE          RMSdq      gap      omega  full diag
   1   -214.1039132 -0.214104E+03  0.342E-02    2.38       0.0  T
   2   -214.1039144 -0.123349E-05  0.195E-02    2.38       1.0  T
   3   -214.1039141  0.353659E-06  0.335E-03    2.38       2.5  T
   4   -214.1039148 -0.790400E-06  0.166E-03    2.38       5.1  T
   5   -214.1039149 -0.561535E-07  0.696E-04    2.38      12.1  T
   6   -214.1039149 -0.687359E-08  0.502E-04    2.38      16.7  T
     SCC iter.                  ...        0 min,  0.107 sec
     gradient                   ...        0 min,  0.031 sec
 * total energy  :  -211.1212986 Eh     change       -0.5800410E-04 Eh
   gradient norm :     0.0018074 Eh/α   predicted    -0.2603196E-04 ( -55.12%)
   displ. norm   :     0.4897203 α      lambda       -0.5823620E-04
   maximum displ.:     0.2833787 α      in ANC's #2, #10, #3, ...

........................................................................
[...]
    22   6 C    3.981 --    46 C    1.434    38 C    1.350   106 H    0.962
    23   6 C    3.978 --    45 C    1.414    39 C    1.372   107 H    0.963
    24   6 C    3.978 --    46 C    1.411    40 C    1.373   108 H    0.964
    25   6 C    3.977 --    47 C    1.408    41 C    1.374   109 H    0.964
    26   6 C    3.976 --    48 C    1.412    42 C    1.371   110 H    0.961
    27   6 C    3.980 --    47 C    1.432    43 C    1.351   111 H    0.961
    28   6 C    3.981 --    48 C    1.433    44 C    1.353   112 H    0.962
    29   6 C    3.967 --    61 N    1.844    37 C    1.078   113 H    0.938
    30   6 C    3.967 --    62 N    1.842    38 C    1.080   114 H    0.937
    31   6 C    3.965 --    63 N    1.843    39 C    1.078   115 H    0.937
    32   6 C    3.967 --    64 N    1.841    40 C    1.081   116 H    0.937
    33   6 C    3.967 --    65 N    1.843    41 C    1.080   117 H    0.937
    34   6 C    3.965 --    66 N    1.844    42 C    1.077   118 H    0.937
    35   6 C    3.966 --    67 N    1.844    43 C    1.078   119 H    0.937
    36   6 C    3.966 --    68 N    1.845    44 C    1.077   120 H    0.938
    37   6 C    3.989 --    17 C    1.399    21 C    1.351    29 C    1.078
    38   6 C    3.989 --    18 C    1.400    22 C    1.350    30 C    1.080
    39   6 C    3.988 --    17 C    1.377    23 C    1.372    31 C    1.078
    40   6 C    3.988 --    18 C    1.375    24 C    1.373    32 C    1.081
    41   6 C    3.988 --    19 C    1.375    25 C    1.374    33 C    1.080
    42   6 C    3.988 --    20 C    1.378    26 C    1.371    34 C    1.077
    43   6 C    3.989 --    19 C    1.400    27 C    1.351    35 C    1.078
    44   6 C    3.989 --    20 C    1.399    28 C    1.353    36 C    1.077
    45   6 C    3.936 --    21 C    1.434    23 C    1.414    57 Br   0.962
    46   6 C    3.936 --    22 C    1.434    24 C    1.411    58 Br   0.967
    47   6 C    3.935 --    27 C    1.432    25 C    1.408    59 Br   0.969
    48   6 C    3.937 --    28 C    1.433    26 C    1.412    60 Br   0.966
    49   6 C    3.976 --    61 N    1.021     9 C    0.964   121 H    0.954
                            50 C    0.943
    50   6 C    3.978 --    62 N    1.023    10 C    0.974   122 H    0.953
                            49 C    0.943
    51   6 C    3.975 --    63 N    1.022    11 C    0.967   123 H    0.953
                            52 C    0.938
    52   6 C    3.976 --    65 N    1.024    12 C    0.971   124 H    0.953
                            51 C    0.938
    53   6 C    3.977 --    64 N    1.023    13 C    0.970   125 H    0.953
                            54 C    0.944
    54   6 C    3.976 --    66 N    1.022    14 C    0.964   126 H    0.953
                            53 C    0.944
    55   6 C    3.977 --    67 N    1.023    15 C    0.973   127 H    0.953
                            56 C    0.939
    56   6 C    3.975 --    68 N    1.023    16 C    0.964   128 H    0.954
                            55 C    0.939
    57  35 Br   1.086 --    45 C    0.962
    58  35 Br   1.090 --    46 C    0.967
    59  35 Br   1.095 --    47 C    0.969
    60  35 Br   1.090 --    48 C    0.966
    61   7 N    3.073 --    29 C    1.844    49 C    1.021
    62   7 N    3.073 --    30 C    1.842    50 C    1.023
    63   7 N    3.072 --    31 C    1.843    51 C    1.022
    64   7 N    3.074 --    32 C    1.841    53 C    1.023
    65   7 N    3.076 --    33 C    1.843    52 C    1.024
    66   7 N    3.072 --    34 C    1.844    54 C    1.022
    67   7 N    3.074 --    35 C    1.844    55 C    1.023
    68   7 N    3.075 --    36 C    1.845    56 C    1.023
    69   1 H    0.998 --     1 C    0.977
    70   1 H    0.996 --     1 C    0.974
    71   1 H    0.996 --     2 C    0.975
    72   1 H    0.998 --     2 C    0.977
    73   1 H    0.998 --     3 C    0.977
    74   1 H    0.996 --     3 C    0.975
    75   1 H    0.998 --     4 C    0.977
    76   1 H    0.996 --     4 C    0.975
    77   1 H    0.998 --     5 C    0.977
    78   1 H    0.996 --     5 C    0.975
    79   1 H    0.996 --     6 C    0.974
    80   1 H    0.998 --     6 C    0.977
    81   1 H    0.996 --     7 C    0.975
    82   1 H    0.998 --     7 C    0.977
    83   1 H    0.996 --     8 C    0.974
    84   1 H    0.998 --     8 C    0.977
    85   1 H    0.997 --     9 C    0.975
    86   1 H    0.998 --     9 C    0.976
    87   1 H    0.997 --    10 C    0.976
    88   1 H    0.998 --    10 C    0.975
    89   1 H    0.998 --    11 C    0.975
    90   1 H    0.997 --    11 C    0.975
    91   1 H    0.997 --    12 C    0.975
    92   1 H    0.997 --    12 C    0.975
    93   1 H    0.997 --    13 C    0.975
    94   1 H    0.997 --    13 C    0.976
    95   1 H    0.998 --    14 C    0.975
    96   1 H    0.997 --    14 C    0.975
    97   1 H    0.997 --    15 C    0.975
    98   1 H    0.997 --    15 C    0.975
    99   1 H    0.998 --    16 C    0.975
   100   1 H    0.997 --    16 C    0.975
   101   1 H    0.994 --    17 C    0.963
   102   1 H    0.994 --    18 C    0.962
   103   1 H    0.993 --    19 C    0.962
   104   1 H    0.994 --    20 C    0.963
   105   1 H    0.994 --    21 C    0.963
   106   1 H    0.993 --    22 C    0.962
   107   1 H    0.994 --    23 C    0.963
   108   1 H    0.995 --    24 C    0.964
   109   1 H    0.995 --    25 C    0.964
   110   1 H    0.993 --    26 C    0.961
   111   1 H    0.993 --    27 C    0.961
   112   1 H    0.993 --    28 C    0.962
   113   1 H    0.999 --    29 C    0.938
   114   1 H    0.999 --    30 C    0.937
   115   1 H    0.999 --    31 C    0.937
   116   1 H    0.999 --    32 C    0.937
   117   1 H    0.999 --    33 C    0.937
   118   1 H    0.999 --    34 C    0.937
   119   1 H    0.999 --    35 C    0.937
   120   1 H    0.999 --    36 C    0.938
   121   1 H    1.000 --    49 C    0.954
   122   1 H    1.000 --    50 C    0.953
   123   1 H    1.000 --    51 C    0.953
   124   1 H    1.000 --    52 C    0.953
   125   1 H    1.000 --    53 C    0.953
   126   1 H    1.000 --    54 C    0.953
   127   1 H    1.000 --    55 C    0.953
   128   1 H    1.000 --    56 C    0.954
   129   6 C    3.949 --   130 C    0.994   131 O    0.975   135 H    0.969
                           142 H    0.966
   130   6 C    3.949 --   129 C    0.994   134 O    0.976   139 H    0.968
                           136 H    0.966
   131   8 O    2.052 --   132 C    0.979   129 C    0.975
   132   6 C    3.952 --   133 C    0.993   131 O    0.979   137 H    0.966
                           140 H    0.966
   133   6 C    3.952 --   132 C    0.993   134 O    0.980   141 H    0.969
                           138 H    0.965
   134   8 O    2.053 --   133 C    0.980   130 C    0.976
   135   1 H    0.996 --   129 C    0.969
   136   1 H    0.999 --   130 C    0.966
   137   1 H    0.999 --   132 C    0.966
   138   1 H    0.999 --   133 C    0.965
   139   1 H    0.995 --   130 C    0.968
   140   1 H    0.997 --   132 C    0.966
   141   1 H    0.997 --   133 C    0.969
   142   1 H    0.999 --   129 C    0.966
 ---------------------------------------------------------------------------

Topologies differ in total number of bonds
Writing topology from bond orders to xtbtopo.mol

molecular dipole:
                 x           y           z       tot (Debye)
 q only:       -0.879       0.185      -0.209
   full:       -1.201       0.227      -0.296       3.197
molecular quadrupole (traceless):
                xx          xy          yy          xz          yz          zz
 q only:      -52.868      26.169      32.318     -16.086       7.277      20.549
  q+dip:      -72.627      41.775      47.920     -22.593       8.522      24.708
   full:      -73.245      40.465      47.219     -22.281      10.596      26.025

           -------------------------------------------------
          |                Geometry Summary                 |
           -------------------------------------------------

      molecular mass/u    :     1252.8506716
   center of mass at/Å    :        0.0743541       0.0457319       0.0679787
  moments of inertia/u·Å² :        0.2559651E+05   0.2875174E+05   0.3196467E+05
rotational constants/cm⁻¹ :        0.6585909E-03   0.5863170E-03   0.5273832E-03

 * 134 selected distances

     #   Z          #   Z                                           value/Å
     1   6 C        2   6 C                                       1.5250681
     3   6 C        4   6 C                                       1.5249985
     5   6 C        6   6 C                                       1.5248254
     7   6 C        8   6 C                                       1.5249444
     1   6 C        9   6 C                                       1.5241451
     2   6 C       10   6 C                                       1.5240469
     3   6 C       11   6 C                                       1.5241265
     4   6 C       12   6 C                                       1.5240486
     5   6 C       13   6 C                                       1.5239425
     6   6 C       14   6 C                                       1.5237586
     7   6 C       15   6 C                                       1.5239960
     8   6 C       16   6 C                                       1.5239155
    17   6 C       37   6 C                                       1.3897749
    21   6 C       37   6 C                                       1.3964661
    18   6 C       38   6 C                                       1.3896221
    22   6 C       38   6 C                                       1.3968298
    17   6 C       39   6 C                                       1.3929372
    23   6 C       39   6 C                                       1.3937657
    18   6 C       40   6 C                                       1.3934682
    24   6 C       40   6 C                                       1.3934151
    19   6 C       41   6 C                                       1.3938446
    25   6 C       41   6 C                                       1.3941974
    20   6 C       42   6 C                                       1.3936022
    26   6 C       42   6 C                                       1.3942595
    19   6 C       43   6 C                                       1.3905244
    27   6 C       43   6 C                                       1.3979315
    20   6 C       44   6 C                                       1.3905924
    28   6 C       44   6 C                                       1.3970677
    21   6 C       45   6 C                                       1.3775674
    23   6 C       45   6 C                                       1.3818932
    22   6 C       46   6 C                                       1.3780291
    24   6 C       46   6 C                                       1.3821634
    25   6 C       47   6 C                                       1.3838708
    27   6 C       47   6 C                                       1.3792550
    26   6 C       48   6 C                                       1.3827815
    28   6 C       48   6 C                                       1.3783871
     9   6 C       49   6 C                                       1.5345161
    10   6 C       50   6 C                                       1.5314322
    49   6 C       50   6 C                                       1.5410348
    11   6 C       51   6 C                                       1.5333224
    12   6 C       52   6 C                                       1.5321140
    51   6 C       52   6 C                                       1.5417310
    13   6 C       53   6 C                                       1.5331424
    14   6 C       54   6 C                                       1.5345767
    53   6 C       54   6 C                                       1.5399945
    15   6 C       55   6 C                                       1.5315619
    16   6 C       56   6 C                                       1.5341156
    55   6 C       56   6 C                                       1.5420529
    45   6 C       57  35 Br                                      1.9061626
    46   6 C       58  35 Br                                      1.9114266
    47   6 C       59  35 Br                                      1.9168474 (max)
    48   6 C       60  35 Br                                      1.9095813
    29   6 C       61   7 N                                       1.2623442
    30   6 C       62   7 N                                       1.2622294
    31   6 C       63   7 N                                       1.2622102
    32   6 C       64   7 N                                       1.2620396
    33   6 C       65   7 N                                       1.2614960
    34   6 C       66   7 N                                       1.2624453
    35   6 C       67   7 N                                       1.2620473
    36   6 C       68   7 N                                       1.2617766
     1   6 C       69   1 H                                       1.0923381
     1   6 C       70   1 H                                       1.0915466
     2   6 C       71   1 H                                       1.0913239
     2   6 C       72   1 H                                       1.0923453
     3   6 C       73   1 H                                       1.0922007
     3   6 C       74   1 H                                       1.0914751
     4   6 C       75   1 H                                       1.0923749
     4   6 C       76   1 H                                       1.0914120
     5   6 C       77   1 H                                       1.0923405
     5   6 C       78   1 H                                       1.0914346
     6   6 C       79   1 H                                       1.0914443
     6   6 C       80   1 H                                       1.0921346
     7   6 C       81   1 H                                       1.0913703
     7   6 C       82   1 H                                       1.0923337
     8   6 C       83   1 H                                       1.0915375
     8   6 C       84   1 H                                       1.0923032
     9   6 C       85   1 H                                       1.0925983
     9   6 C       86   1 H                                       1.0917896
    10   6 C       87   1 H                                       1.0918908
    10   6 C       88   1 H                                       1.0913221
    11   6 C       89   1 H                                       1.0915160
    11   6 C       90   1 H                                       1.0921725
    12   6 C       91   1 H                                       1.0912437
    12   6 C       92   1 H                                       1.0921099
    13   6 C       93   1 H                                       1.0912556
    13   6 C       94   1 H                                       1.0921491
    14   6 C       95   1 H                                       1.0916790
    14   6 C       96   1 H                                       1.0921841
    15   6 C       97   1 H                                       1.0913764
    15   6 C       98   1 H                                       1.0919739
    16   6 C       99   1 H                                       1.0916368
    16   6 C      100   1 H                                       1.0924341
    17   6 C      101   1 H                                       1.0783250
    18   6 C      102   1 H                                       1.0789201
    19   6 C      103   1 H                                       1.0785280
    20   6 C      104   1 H                                       1.0787017
    21   6 C      105   1 H                                       1.0785461
    22   6 C      106   1 H                                       1.0780478
    23   6 C      107   1 H                                       1.0799145
    24   6 C      108   1 H                                       1.0795468
    25   6 C      109   1 H                                       1.0794117
    26   6 C      110   1 H                                       1.0792595
    27   6 C      111   1 H                                       1.0780700
    28   6 C      112   1 H                                       1.0777804 (min)
    29   6 C      113   1 H                                       1.0996217
    30   6 C      114   1 H                                       1.0998554
    31   6 C      115   1 H                                       1.0994596
    32   6 C      116   1 H                                       1.1006131
    33   6 C      117   1 H                                       1.1005848
    34   6 C      118   1 H                                       1.0988726
    35   6 C      119   1 H                                       1.0991793
    36   6 C      120   1 H                                       1.0993613
    49   6 C      121   1 H                                       1.1031922
    50   6 C      122   1 H                                       1.1047339
    51   6 C      123   1 H                                       1.1039615
    52   6 C      124   1 H                                       1.1047607
    53   6 C      125   1 H                                       1.1047673
    54   6 C      126   1 H                                       1.1033512
    55   6 C      127   1 H                                       1.1043430
    56   6 C      128   1 H                                       1.1036171
   129   6 C      130   6 C                                       1.5274379
   129   6 C      131   8 O                                       1.4166410
   131   8 O      132   6 C                                       1.4149351
   132   6 C      133   6 C                                       1.5275420
   130   6 C      134   8 O                                       1.4175097
   133   6 C      134   8 O                                       1.4144581
   129   6 C      135   1 H                                       1.0888515
   130   6 C      136   1 H                                       1.0996150
   132   6 C      137   1 H                                       1.0994085
   133   6 C      138   1 H                                       1.0990437
   130   6 C      139   1 H                                       1.0893448
   132   6 C      140   1 H                                       1.0887479
   133   6 C      141   1 H                                       1.0899124
   129   6 C      142   1 H                                       1.0988452

 * 5 distinct bonds (by element types)

   Z      Z             #   av. dist./Å        max./Å        min./Å
   1 H    6 C          68     1.0921815     1.1047673     1.0777804
   6 C    6 C          50     1.4623727     1.5420529     1.3775674
   6 C    7 N           8     1.2620736     1.2624453     1.2614960
   6 C    8 O           4     1.4158859     1.4175097     1.4144581
   6 C   35 Br          4     1.9110045     1.9168474     1.9061626


optimized geometry written to: xtbopt.xyz


           -------------------------------------------------
          | TOTAL ENERGY             -211.125121115337 Eh   |
          | GRADIENT NORM               0.000265592099 Eh/α |
          | HOMO-LUMO GAP               2.424307058166 eV   |
           -------------------------------------------------

------------------------------------------------------------------------
 * finished run on 2023/10/31 at 15:35:10.428     
------------------------------------------------------------------------
 total:
 * wall-time:     0 d,  0 h,  0 min, 25.794 sec
 *  cpu-time:     0 d,  0 h, 15 min, 17.117 sec
 * ratio c/w:    35.555 speedup
 SCF:
 * wall-time:     0 d,  0 h,  0 min,  0.554 sec
 *  cpu-time:     0 d,  0 h,  0 min, 15.780 sec
 * ratio c/w:    28.470 speedup
 ANC optimizer:
 * wall-time:     0 d,  0 h,  0 min, 25.053 sec
 *  cpu-time:     0 d,  0 h, 14 min, 56.961 sec
 * ratio c/w:    35.803 speedup

