16
 energy: -31.857840980399 gnorm: 0.000821086690 xtb: 6.4.1 (23d549d)
C         0.22415555635844   -0.94823603299292    0.17911162809115
C        -1.42331718922556    0.79702975427070   -0.10202001058126
C         0.92628454173614    1.31079436030467   -0.29773241985697
C        -2.18353361801531   -1.51491582914965    0.38707537903965
C         2.65163779599825   -0.44765024295265   -0.01776996261987
C        -1.10832050508682   -0.53868257177389    0.15078164179048
C         1.24180987947943   -0.02714125752741   -0.04459437473741
C        -0.39922019372397    1.70300198088337   -0.32194902703117
Br       -0.83060905910027    3.53491522003571   -0.66652604408609
O        -2.00943618693084   -2.68892791533149    0.61332119733875
O         3.59438209338452    0.28560508473472   -0.19991254920475
H         0.44529963388474   -1.98680303696778    0.37707024143259
H        -2.45340960857944    1.11907895050658   -0.12556142463316
H         1.72836322730797    2.01334478884473   -0.46958649133035
H        -3.20177732590174   -1.08967353560358    0.34655285457471
H         2.79769295841447   -1.52173971728111    0.19173736181369
