      -----------------------------------------------------------      
     |                   =====================                   |     
     |                           x T B                           |     
     |                   =====================                   |     
     |                         S. Grimme                         |     
     |          Mulliken Center for Theoretical Chemistry        |     
     |                    University of Bonn                     |     
      -----------------------------------------------------------      

   * xtb version 6.4.1 (23d549d) compiled by 'conda@3c73975816cd' on 2022-01-07

   xtb is free software: you can redistribute it and/or modify it under
   the terms of the GNU Lesser General Public License as published by
   the Free Software Foundation, either version 3 of the License, or
   (at your option) any later version.
   
   xtb is distributed in the hope that it will be useful,
   but WITHOUT ANY WARRANTY; without even the implied warranty of
   MERCHANTABILITY or FITNESS FOR A PARTICULAR PURPOSE.  See the
   GNU Lesser General Public License for more details.
   
   Cite this work as:
   * C. Bannwarth, E. Caldeweyher, S. Ehlert, A. Hansen, P. Pracht,
     J. Seibert, S. Spicher, S. Grimme, WIREs Comput. Mol. Sci., 2020, 11,
     e01493. DOI: 10.1002/wcms.1493
   
   for GFN2-xTB:
   * C. Bannwarth, S. Ehlert and S. Grimme., J. Chem. Theory Comput., 2019,
     15, 1652-1671. DOI: 10.1021/acs.jctc.8b01176
   for GFN1-xTB:
   * S. Grimme, C. Bannwarth, P. Shushkov, J. Chem. Theory Comput., 2017,
     13, 1989-2009. DOI: 10.1021/acs.jctc.7b00118
   for GFN0-xTB:
   * P. Pracht, E. Caldeweyher, S. Ehlert, S. Grimme, ChemRxiv, 2019, preprint.
     DOI: 10.26434/chemrxiv.8326202.v1
   for GFN-FF:
   * S. Spicher and S. Grimme, Angew. Chem. Int. Ed., 2020, 59, 15665-15673.
     DOI: 10.1002/anie.202004239
   
   for DFT-D4:
   * E. Caldeweyher, C. Bannwarth and S. Grimme, J. Chem. Phys., 2017,
     147, 034112. DOI: 10.1063/1.4993215
   * E. Caldeweyher, S. Ehlert, A. Hansen, H. Neugebauer, S. Spicher,
     C. Bannwarth and S. Grimme, J. Chem. Phys., 2019, 150, 154122.
     DOI: 10.1063/1.5090222
   * E. Caldeweyher, J.-M. Mewes, S. Ehlert and S. Grimme, Phys. Chem. Chem. Phys.
     2020, 22, 8499-8512. DOI: 10.1039/D0CP00502A
   
   for sTDA-xTB:
   * S. Grimme and C. Bannwarth, J. Chem. Phys., 2016, 145, 054103.
     DOI: 10.1063/1.4959605
   
   in the mass-spec context:
   * V. Asgeirsson, C. Bauer and S. Grimme, Chem. Sci., 2017, 8, 4879.
     DOI: 10.1039/c7sc00601b
   * J. Koopman and S. Grimme, ACS Omega 2019, 4, 12, 15120-15133.
     DOI: 10.1021/acsomega.9b02011
   
   for metadynamics refer to:
   * S. Grimme, J. Chem. Theory Comput., 2019, 155, 2847-2862
     DOI: 10.1021/acs.jctc.9b00143
   
   for SPH calculations refer to:
   * S. Spicher and S. Grimme, J. Chem. Theory Comput., 2021, 17, 1701-1714
     DOI: 10.1021/acs.jctc.0c01306
   
   with help from (in alphabetical order)
   P. Atkinson, C. Bannwarth, F. Bohle, G. Brandenburg, E. Caldeweyher
   M. Checinski, S. Dohm, S. Ehlert, S. Ehrlich, I. Gerasimov, J. Koopman
   C. Lavigne, S. Lehtola, F. März, M. Müller, F. Musil, H. Neugebauer
   J. Pisarek, C. Plett, P. Pracht, J. Seibert, P. Shushkov, S. Spicher
   M. Stahn, M. Steiner, T. Strunk, J. Stückrath, T. Rose, and J. Unsleber
   
 * started run on 2022/04/01 at 14:49:25.039     

           -------------------------------------------------
          |                Calculation Setup                |
           -------------------------------------------------

          program call               : xtb QAQOLRCTTDVBAK-UHFFFAOYSA-N_ETKDG_MMFF.xyz --opt --gfn 2 --alpb chcl3 --cycles 10000
          coordinate file            : QAQOLRCTTDVBAK-UHFFFAOYSA-N_ETKDG_MMFF.xyz
          omp threads                :                    36
          number of atoms            :                    16
          number of electrons        :                    56
          charge                     :                     0
          spin                       :                   0.0
          first test random number   :      0.15034083668870

   ID    Z sym.   atoms
    1    6 C      1-8
    2   35 Br     9
    3    8 O      10, 11
    4    1 H      12-16

           -------------------------------------------------
          |                 G F N 2 - x T B                 |
           -------------------------------------------------

        Reference                      10.1021/acs.jctc.8b01176
      * Hamiltonian:
        H0-scaling (s, p, d)           1.850000    2.230000    2.230000
        zeta-weighting                 0.500000
      * Dispersion:
        s8                             2.700000
        a1                             0.520000
        a2                             5.000000
        s9                             5.000000
      * Repulsion:
        kExp                           1.500000    1.000000
        rExp                           1.000000
      * Coulomb:
        alpha                          2.000000
        third order                    shell-resolved
        anisotropic                    true
        a3                             3.000000
        a5                             4.000000
        cn-shift                       1.200000
        cn-exp                         4.000000
        max-rad                        5.000000

      * Solvation model:               ALPB
        Solvent                        chcl3
        Parameter file                 internal GFN2-xTB/ALPB
        Dielectric constant                4.8100E+00
        Reference state                gsolv [1 M gas/solution]
        Free energy shift                  3.8910E-03 Eh       2.4417E+00 kcal/mol
        Temperature                        2.9815E+02 K
        Density                            1.4900E+00 kg/L
        Solvent mass                       1.1938E+02 g/mol
        Interaction kernel             P16
        Born radius scaling (c1)           1.3274E+00
        Born radii integrator          GBOBC
        Born offset                        0.0000E+00 a0       0.0000E+00 AA
        H-bond correction              false
        Ion screening                  false
        Surface tension                    1.0000E-05 Eh       1.5569E+01 dyn/cm
        Grid points                               230 per atom

          ...................................................
          :                      SETUP                      :
          :.................................................:
          :  # basis functions                  55          :
          :  # atomic orbitals                  54          :
          :  # shells                           28          :
          :  # electrons                        56          :
          :  max. iterations                   250          :
          :  Hamiltonian                  GFN2-xTB          :
          :  restarted?                      false          :
          :  GBSA solvation                   true          :
          :  PC potential                    false          :
          :  electronic temp.          300.0000000     K    :
          :  accuracy                    1.0000000          :
          :  -> integral cutoff          0.2500000E+02      :
          :  -> integral neglect         0.1000000E-07      :
          :  -> SCF convergence          0.1000000E-05 Eh   :
          :  -> wf. convergence          0.1000000E-03 e    :
          :  Broyden damping             0.4000000          :
          ...................................................

 iter      E             dE          RMSdq      gap      omega  full diag
   1    -32.1605683 -0.321606E+02  0.692E+00    3.04       0.0  T
   2    -32.2312638 -0.706955E-01  0.372E+00    2.50       1.0  T
   3    -32.2308499  0.413895E-03  0.177E+00    2.64       1.0  T
   4    -32.2403037 -0.945382E-02  0.436E-01    2.55       1.0  T
   5    -32.2406294 -0.325666E-03  0.295E-01    2.55       1.0  T
   6    -32.2407778 -0.148358E-03  0.163E-01    2.56       1.0  T
   7    -32.2408644 -0.866828E-04  0.111E-01    2.55       1.0  T
   8    -32.2408834 -0.189948E-04  0.517E-02    2.55       1.0  T
   9    -32.2409040 -0.205843E-04  0.168E-02    2.55       1.5  T
  10    -32.2409041 -0.859570E-07  0.857E-03    2.55       2.9  T
  11    -32.2409046 -0.485846E-06  0.224E-03    2.55      11.2  T
  12    -32.2409046 -0.110745E-07  0.148E-03    2.55      16.9  T
  13    -32.2409046 -0.694409E-08  0.871E-04    2.55      28.7  T
  14    -32.2409046 -0.501281E-08  0.327E-04    2.55      76.5  T

   *** convergence criteria satisfied after 14 iterations ***

         #    Occupation            Energy/Eh            Energy/eV
      -------------------------------------------------------------
         1        2.0000           -0.8563260             -23.3018
       ...           ...                  ...                  ...
        22        2.0000           -0.4752791             -12.9330
        23        2.0000           -0.4704686             -12.8021
        24        2.0000           -0.4553490             -12.3907
        25        2.0000           -0.4335458             -11.7974
        26        2.0000           -0.4330273             -11.7833
        27        2.0000           -0.4226033             -11.4996
        28        2.0000           -0.4225345             -11.4977 (HOMO)
        29                         -0.3286801              -8.9438 (LUMO)
        30                         -0.3166809              -8.6173
        31                         -0.2587447              -7.0408
        32                         -0.2220076              -6.0411
        33                         -0.2183276              -5.9410
       ...                                ...                  ...
        54                          0.6158431              16.7579
      -------------------------------------------------------------
                  HL-Gap            0.0938545 Eh            2.5539 eV
             Fermi-level           -0.3756073 Eh          -10.2208 eV

 SCC (total)                   0 d,  0 h,  0 min,  0.548 sec
 SCC setup                      ...        0 min,  0.021 sec (  3.873%)
 Dispersion                     ...        0 min,  0.008 sec (  1.508%)
 classical contributions        ...        0 min,  0.006 sec (  1.154%)
 integral evaluation            ...        0 min,  0.011 sec (  2.054%)
 iterations                     ...        0 min,  0.415 sec ( 75.728%)
 molecular gradient             ...        0 min,  0.086 sec ( 15.651%)
 printout                       ...        0 min,  0.000 sec (  0.026%)

         :::::::::::::::::::::::::::::::::::::::::::::::::::::
         ::                     SUMMARY                     ::
         :::::::::::::::::::::::::::::::::::::::::::::::::::::
         :: total energy             -31.855682165334 Eh    ::
         :: total w/o Gsasa/hb       -31.845150404021 Eh    ::
         :: gradient norm              0.051957121079 Eh/a0 ::
         :: HOMO-LUMO gap              2.553909951219 eV    ::
         ::.................................................::
         :: SCC energy               -32.240904617448 Eh    ::
         :: -> isotropic ES            0.062631415867 Eh    ::
         :: -> anisotropic ES         -0.001632246333 Eh    ::
         :: -> anisotropic XC          0.010766411217 Eh    ::
         :: -> dispersion             -0.015467827212 Eh    ::
         :: -> Gsolv                  -0.022478129749 Eh    ::
         ::    -> Gelec               -0.011946368437 Eh    ::
         ::    -> Gsasa               -0.014422780556 Eh    ::
         ::    -> Ghb                  0.000000000000 Eh    ::
         ::    -> Gshift               0.003891019244 Eh    ::
         :: repulsion energy           0.385183111526 Eh    ::
         :: add. restraining           0.000000000000 Eh    ::
         :: total charge              -0.000000000000 e     ::
         :::::::::::::::::::::::::::::::::::::::::::::::::::::

      ----------------------------------------------------------- 
     |                   =====================                   |
     |                        A N C O P T                        |
     |                   =====================                   |
     |               Approximate Normal Coordinate               |
     |                Rational Function Optimizer                |
      ----------------------------------------------------------- 

          ...................................................
          :                      SETUP                      :
          :.................................................:
          :   optimization level            normal          :
          :   max. optcycles                 10000          :
          :   ANC micro-cycles                  20          :
          :   degrees of freedom                42          :
          :.................................................:
          :   RF solver                   davidson          :
          :   write xtbopt.log                true          :
          :   linear?                        false          :
          :   energy convergence         0.5000000E-05 Eh   :
          :   grad. convergence          0.1000000E-02 Eh/α :
          :   maximium RF displ.         1.0000000          :
          :   Hlow (freq-cutoff)         0.1000000E-01      :
          :   Hmax (freq-cutoff)         5.0000000          :
          :   S6 in model hess.         20.0000000          :
          ...................................................

generating ANC from model Hessian ...
Using Lindh-Hessian (1995)
 Shifting diagonal of input Hessian by    5.8350376943285360E-003
 Lowest  eigenvalues of input Hessian
    0.000000    0.000000    0.000000    0.000000    0.000000    0.000000
    0.010000    0.010995    0.011503    0.016531    0.017460    0.018539
    0.024867    0.030061    0.041990    0.042853    0.047119    0.071124
 Highest eigenvalues
    1.546007    1.823440    1.887683    1.923620    2.141808    2.157425


........................................................................
.............................. CYCLE    1 ..............................
........................................................................
   1    -32.2409046 -0.322409E+02  0.232E-04    2.55       0.0  T
   2    -32.2409046 -0.195840E-09  0.141E-04    2.55     177.5  T
   3    -32.2409046 -0.485514E-10  0.109E-04    2.55     230.3  T
     SCC iter.                  ...        0 min,  0.116 sec
     gradient                   ...        0 min,  0.089 sec
 * total energy  :   -31.8556822 Eh     change       -0.4739249E-09 Eh
   gradient norm :     0.0519600 Eh/α   predicted     0.0000000E+00 (-100.00%)
   displ. norm   :     0.0991416 α      lambda       -0.2816797E-02
   maximum displ.:     0.0501848 α      in ANC's #18, #23, #17, ...

........................................................................
.............................. CYCLE    2 ..............................
........................................................................
   1    -32.2586292 -0.322586E+02  0.154E-01    2.57       0.0  T
   2    -32.2586481 -0.189245E-04  0.883E-02    2.58       1.0  T
   3    -32.2586471  0.102855E-05  0.275E-02    2.58       1.0  T
   4    -32.2586504 -0.332836E-05  0.127E-02    2.57       2.0  T
   5    -32.2586510 -0.572663E-06  0.768E-03    2.57       3.3  T
   6    -32.2586511 -0.103470E-06  0.586E-03    2.57       4.3  T
   7    -32.2586511 -0.542107E-07  0.404E-03    2.57       6.2  T
   8    -32.2586512 -0.603963E-07  0.157E-03    2.57      15.9  T
   9    -32.2586512 -0.311548E-08  0.766E-04    2.57      32.6  T
  10    -32.2586512 -0.354596E-08  0.140E-04    2.57     178.0  T
     SCC iter.                  ...        0 min,  0.445 sec
     gradient                   ...        0 min,  0.090 sec
 * total energy  :   -31.8575315 Eh     change       -0.1849348E-02 Eh
   gradient norm :     0.0189574 Eh/α   predicted    -0.1422241E-02 ( -23.10%)
   displ. norm   :     0.0586250 α      lambda       -0.5183301E-03
   maximum displ.:     0.0291814 α      in ANC's #18, #19, #7, ...

........................................................................
.............................. CYCLE    3 ..............................
........................................................................
   1    -32.2637814 -0.322638E+02  0.845E-02    2.58       0.0  T
   2    -32.2637859 -0.442469E-05  0.492E-02    2.58       1.0  T
   3    -32.2637858  0.625943E-07  0.172E-02    2.58       1.5  T
   4    -32.2637868 -0.997929E-06  0.994E-03    2.57       2.5  T
   5    -32.2637871 -0.271436E-06  0.619E-03    2.58       4.0  T
   6    -32.2637871 -0.515488E-07  0.472E-03    2.58       5.3  T
   7    -32.2637872 -0.678228E-07  0.195E-03    2.58      12.8  T
   8    -32.2637872 -0.172729E-07  0.790E-04    2.58      31.7  T
   9    -32.2637872 -0.212047E-09  0.395E-04    2.58      63.3  T
     SCC iter.                  ...        0 min,  0.301 sec
     gradient                   ...        0 min,  0.085 sec
 * total energy  :   -31.8578197 Eh     change       -0.2881673E-03 Eh
   gradient norm :     0.0038004 Eh/α   predicted    -0.2600552E-03 (  -9.76%)
   displ. norm   :     0.0215666 α      lambda       -0.3028974E-04
   maximum displ.:     0.0158503 α      in ANC's #7, #9, #19, ...

........................................................................
.............................. CYCLE    4 ..............................
........................................................................
   1    -32.2631769 -0.322632E+02  0.196E-02    2.57       0.0  T
   2    -32.2631771 -0.211920E-06  0.117E-02    2.57       2.1  T
   3    -32.2631770  0.588299E-07  0.591E-03    2.57       4.2  T
   4    -32.2631772 -0.146571E-06  0.308E-03    2.57       8.1  T
   5    -32.2631772 -0.202645E-07  0.198E-03    2.57      12.7  T
   6    -32.2631772 -0.707857E-08  0.123E-03    2.57      20.3  T
   7    -32.2631772 -0.479015E-08  0.483E-04    2.57      51.8  T
   8    -32.2631772 -0.144973E-08  0.152E-04    2.57     164.7  T
     SCC iter.                  ...        0 min,  0.323 sec
     gradient                   ...        0 min,  0.091 sec
 * total energy  :   -31.8578388 Eh     change       -0.1909242E-04 Eh
   gradient norm :     0.0013689 Eh/α   predicted    -0.1515228E-04 ( -20.64%)
   displ. norm   :     0.0230060 α      lambda       -0.8135865E-05
   maximum displ.:     0.0163655 α      in ANC's #7, #9, #14, ...

........................................................................
.............................. CYCLE    5 ..............................
........................................................................
   1    -32.2623616 -0.322624E+02  0.240E-02    2.57       0.0  T
   2    -32.2623618 -0.174969E-06  0.143E-02    2.57       1.8  T
   3    -32.2623617  0.867375E-07  0.517E-03    2.57       4.8  T
   4    -32.2623618 -0.137812E-06  0.243E-03    2.57      10.3  T
   5    -32.2623618 -0.163274E-07  0.158E-03    2.57      15.8  T
   6    -32.2623618 -0.482200E-08  0.958E-04    2.57      26.1  T
   7    -32.2623618 -0.206144E-08  0.453E-04    2.57      55.2  T
     SCC iter.                  ...        0 min,  0.232 sec
     gradient                   ...        0 min,  0.087 sec
 * total energy  :   -31.8578362 Eh     change        0.2583016E-05 Eh
   gradient norm :     0.0016966 Eh/α   predicted    -0.4068537E-05 (-257.51%)
   displ. norm   :     0.0122402 α      lambda       -0.9558795E-05
   maximum displ.:     0.0066777 α      in ANC's #14, #11, #4, ...

........................................................................
.............................. CYCLE    6 ..............................
........................................................................
   1    -32.2624208 -0.322624E+02  0.203E-02    2.57       0.0  T
   2    -32.2624208 -0.166807E-07  0.123E-02    2.57       2.0  T
   3    -32.2624208 -0.204318E-08  0.100E-03    2.57      25.0  T
   4    -32.2624208 -0.748996E-08  0.482E-04    2.57      51.9  T
   5    -32.2624208 -0.289326E-09  0.194E-04    2.57     128.7  T
     SCC iter.                  ...        0 min,  0.169 sec
     gradient                   ...        0 min,  0.088 sec
 * total energy  :   -31.8578410 Eh     change       -0.4789369E-05 Eh
   gradient norm :     0.0008203 Eh/α   predicted    -0.4780054E-05 (  -0.19%)
   displ. norm   :     0.0107555 α      lambda       -0.2576018E-05
   maximum displ.:     0.0080867 α      in ANC's #7, #9, #23, ...

   *** GEOMETRY OPTIMIZATION CONVERGED AFTER 6 ITERATIONS ***

------------------------------------------------------------------------
 total energy gain   :        -0.0021588 Eh       -1.3547 kcal/mol
 total RMSD          :         0.0432006 a0        0.0229 Å
 total power (kW/mol):        -0.9446613 (step)   -2.4448 (real)
------------------------------------------------------------------------

 ANCopt (total)                0 d,  0 h,  0 min,  2.318 sec
 optimizer setup                ...        0 min,  0.000 sec (  0.003%)
 model hessian                  ...        0 min,  0.002 sec (  0.099%)
 ANC generation                 ...        0 min,  0.000 sec (  0.019%)
 coordinate transformation      ...        0 min,  0.000 sec (  0.002%)
 single point calculation       ...        0 min,  2.295 sec ( 98.975%)
 optimization log               ...        0 min,  0.001 sec (  0.029%)
 hessian update                 ...        0 min,  0.019 sec (  0.800%)
 rational function              ...        0 min,  0.001 sec (  0.055%)

================
 final structure:
================
16
 xtb: 6.4.1 (23d549d)
C         0.22415555635844   -0.94823603299292    0.17911162809115
C        -1.42331718922556    0.79702975427070   -0.10202001058126
C         0.92628454173614    1.31079436030467   -0.29773241985697
C        -2.18353361801531   -1.51491582914965    0.38707537903965
C         2.65163779599825   -0.44765024295265   -0.01776996261987
C        -1.10832050508682   -0.53868257177389    0.15078164179048
C         1.24180987947943   -0.02714125752741   -0.04459437473741
C        -0.39922019372397    1.70300198088337   -0.32194902703117
Br       -0.83060905910027    3.53491522003571   -0.66652604408609
O        -2.00943618693084   -2.68892791533149    0.61332119733875
O         3.59438209338452    0.28560508473472   -0.19991254920475
H         0.44529963388474   -1.98680303696778    0.37707024143259
H        -2.45340960857944    1.11907895050658   -0.12556142463316
H         1.72836322730797    2.01334478884473   -0.46958649133035
H        -3.20177732590174   -1.08967353560358    0.34655285457471
H         2.79769295841447   -1.52173971728111    0.19173736181369

 Bond Distances (Angstroems)
 ---------------------------
C1-C6=1.3943         C1-C7=1.3907         C1-H12=1.0801        C2-C6=1.3954         C2-C8=1.3849         C2-H13=1.0795        
C3-C7=1.3978         C3-C8=1.3825         C3-H14=1.0800        C4-C6=1.4714         C4-O10=1.2082        C4-H15=1.1042        
C5-C7=1.4714         C5-O11=1.2081        C5-H16=1.1040        C6-C1=1.3943         C6-C2=1.3954         C6-C4=1.4714         
C7-C1=1.3907         C7-C3=1.3978         C7-C5=1.4714         C8-C2=1.3849         C8-C3=1.3825         C8-Br9=1.9133        
Br9-C8=1.9133        O10-C4=1.2082        O11-C5=1.2081        H12-C1=1.0801        H13-C2=1.0795        H14-C3=1.0800        
H15-C4=1.1042        H16-C5=1.1040        
 C  H  Rav=1.0896 sigma=0.0119  Rmin=1.0795  Rmax=1.1042     5
 C  C  Rav=1.4111 sigma=0.0352  Rmin=1.3825  Rmax=1.4714     8
 O  C  Rav=1.2082 sigma=0.0000  Rmin=1.2081  Rmax=1.2082     2
 Br C  Rav=1.9133 sigma=0.0000  Rmin=1.9133  Rmax=1.9133     1

 selected bond angles (degree)
 --------------------
C7-C1-C6=120.10                H12-C1-C6=118.80               H12-C1-C7=121.10               C8-C2-C6=119.21                
H13-C2-C6=120.33               H13-C2-C8=120.46               C8-C3-C7=119.42                H14-C3-C7=118.94               
H14-C3-C8=121.65               O10-C4-C6=124.71               H15-C4-C6=114.36               H15-C4-O10=120.93              
O11-C5-C7=124.85               H16-C5-C7=114.09               H16-C5-O11=121.05              C2-C6-C1=120.04                
C4-C6-C1=120.01                C4-C6-C2=119.95                C3-C7-C1=119.86                C5-C7-C1=120.59                
C5-C7-C3=119.55                C3-C8-C2=121.37                Br9-C8-C2=119.22               Br9-C8-C3=119.40               

 selected dihedral angles (degree)
 ---------------------------------
C2-C6-C1-C7=  0.00            C2-C6-C1-H12=179.97           C4-C6-C1-C7=179.97            C4-C6-C1-H12=359.95           
C1-C6-C2-C8=359.96            C1-C6-C2-H13=179.97           C4-C6-C2-C8=179.98            C4-C6-C2-H13=  0.00           
C1-C6-C4-O10=  0.00           C1-C6-C4-H15=179.81           C2-C6-C4-O10=180.00           C2-C6-C4-H15=359.79           
C3-C7-C1-C6=  0.00            C3-C7-C1-H12=180.03           C5-C7-C1-C6=180.03            C5-C7-C1-H12=  0.04           
C1-C7-C3-C8=  0.03            C1-C7-C3-H14=180.01           C5-C7-C3-C8=180.02            C5-C7-C3-H14=  0.00           
C1-C7-C5-O11=180.07           C1-C7-C5-H16=359.88           C3-C7-C5-O11=  0.08           C3-C7-C5-H16=179.89           
C3-C8-C2-C6=  0.08            C3-C8-C2-H13=180.08           Br9-C8-C2-C6=180.07           Br9-C8-C2-H13=  0.07          
C2-C8-C3-C7=359.92            C2-C8-C3-H14=179.94           Br9-C8-C3-C7=179.93           Br9-C8-C3-H14=359.95          
           -------------------------------------------------
          |                Final Singlepoint                |
           -------------------------------------------------

          ...................................................
          :                      SETUP                      :
          :.................................................:
          :  # basis functions                  55          :
          :  # atomic orbitals                  54          :
          :  # shells                           28          :
          :  # electrons                        56          :
          :  max. iterations                   250          :
          :  Hamiltonian                  GFN2-xTB          :
          :  restarted?                      false          :
          :  GBSA solvation                   true          :
          :  PC potential                    false          :
          :  electronic temp.          300.0000000     K    :
          :  accuracy                    1.0000000          :
          :  -> integral cutoff          0.2500000E+02      :
          :  -> integral neglect         0.1000000E-07      :
          :  -> SCF convergence          0.1000000E-05 Eh   :
          :  -> wf. convergence          0.1000000E-03 e    :
          :  Broyden damping             0.4000000          :
          ...................................................

 iter      E             dE          RMSdq      gap      omega  full diag
   1    -32.2624208 -0.322624E+02  0.135E-04    2.57       0.0  T
   2    -32.2624208 -0.355698E-10  0.103E-04    2.57     243.0  T
   3    -32.2624208 -0.173230E-10  0.878E-05    2.57     284.8  T

   *** convergence criteria satisfied after 3 iterations ***

         #    Occupation            Energy/Eh            Energy/eV
      -------------------------------------------------------------
         1        2.0000           -0.8552152             -23.2716
       ...           ...                  ...                  ...
        22        2.0000           -0.4747054             -12.9174
        23        2.0000           -0.4709261             -12.8146
        24        2.0000           -0.4568524             -12.4316
        25        2.0000           -0.4323758             -11.7655
        26        2.0000           -0.4319212             -11.7532
        27        2.0000           -0.4228161             -11.5054
        28        2.0000           -0.4217911             -11.4775 (HOMO)
        29                         -0.3273220              -8.9069 (LUMO)
        30                         -0.3143306              -8.5534
        31                         -0.2551950              -6.9442
        32                         -0.2264050              -6.1608
        33                         -0.2151715              -5.8551
       ...                                ...                  ...
        54                          0.6456608              17.5693
      -------------------------------------------------------------
                  HL-Gap            0.0944690 Eh            2.5706 eV
             Fermi-level           -0.3745566 Eh          -10.1922 eV

 SCC (total)                   0 d,  0 h,  0 min,  0.209 sec
 SCC setup                      ...        0 min,  0.005 sec (  2.546%)
 Dispersion                     ...        0 min,  0.007 sec (  3.550%)
 classical contributions        ...        0 min,  0.004 sec (  1.723%)
 integral evaluation            ...        0 min,  0.010 sec (  4.827%)
 iterations                     ...        0 min,  0.094 sec ( 45.091%)
 molecular gradient             ...        0 min,  0.088 sec ( 42.195%)
 printout                       ...        0 min,  0.000 sec (  0.049%)

         :::::::::::::::::::::::::::::::::::::::::::::::::::::
         ::                     SUMMARY                     ::
         :::::::::::::::::::::::::::::::::::::::::::::::::::::
         :: total energy             -31.857840980399 Eh    ::
         :: total w/o Gsasa/hb       -31.847341930768 Eh    ::
         :: gradient norm              0.000821086690 Eh/a0 ::
         :: HOMO-LUMO gap              2.570633561375 eV    ::
         ::.................................................::
         :: SCC energy               -32.262420814236 Eh    ::
         :: -> isotropic ES            0.060700723745 Eh    ::
         :: -> anisotropic ES         -0.001307350576 Eh    ::
         :: -> anisotropic XC          0.010457772746 Eh    ::
         :: -> dispersion             -0.015485197711 Eh    ::
         :: -> Gsolv                  -0.021923870546 Eh    ::
         ::    -> Gelec               -0.011424820916 Eh    ::
         ::    -> Gsasa               -0.014390068874 Eh    ::
         ::    -> Ghb                  0.000000000000 Eh    ::
         ::    -> Gshift               0.003891019244 Eh    ::
         :: repulsion energy           0.404541528629 Eh    ::
         :: add. restraining           0.000000000000 Eh    ::
         :: total charge              -0.000000000000 e     ::
         :::::::::::::::::::::::::::::::::::::::::::::::::::::

           -------------------------------------------------
          |                Property Printout                |
           -------------------------------------------------

    * Orbital Energies and Occupations

         #    Occupation            Energy/Eh            Energy/eV
      -------------------------------------------------------------
         1        2.0000           -0.8552152             -23.2716
       ...           ...                  ...                  ...
        16        2.0000           -0.5487099             -14.9312
        17        2.0000           -0.5369673             -14.6116
        18        2.0000           -0.5262201             -14.3192
        19        2.0000           -0.5252217             -14.2920
        20        2.0000           -0.5200546             -14.1514
        21        2.0000           -0.4857767             -13.2187
        22        2.0000           -0.4747054             -12.9174
        23        2.0000           -0.4709261             -12.8146
        24        2.0000           -0.4568524             -12.4316
        25        2.0000           -0.4323758             -11.7655
        26        2.0000           -0.4319212             -11.7532
        27        2.0000           -0.4228161             -11.5054
        28        2.0000           -0.4217911             -11.4775 (HOMO)
        29                         -0.3273220              -8.9069 (LUMO)
        30                         -0.3143306              -8.5534
        31                         -0.2551950              -6.9442
        32                         -0.2264050              -6.1608
        33                         -0.2151715              -5.8551
        34                         -0.1252642              -3.4086
        35                          0.0159016               0.4327
        36                          0.0211642               0.5759
        37                          0.0231053               0.6287
        38                          0.0590214               1.6061
        39                          0.0607027               1.6518
       ...                                ...                  ...
        54                          0.6456608              17.5693
      -------------------------------------------------------------
                  HL-Gap            0.0944690 Eh            2.5706 eV
             Fermi-level           -0.3745566 Eh          -10.1922 eV

     #   Z          covCN         q      C6AA      α(0)
     1   6 C        2.923    -0.007    28.207     8.710
     2   6 C        2.990    -0.016    28.406     8.743
     3   6 C        2.991    -0.007    28.175     8.707
     4   6 C        2.767     0.217    23.426     7.927
     5   6 C        2.767     0.217    23.414     7.925
     6   6 C        2.971     0.005    27.899     8.664
     7   6 C        2.970     0.005    27.909     8.666
     8   6 C        2.911     0.101    25.764     8.323
     9  35 Br       1.060    -0.162   189.528    22.197
    10   8 O        0.856    -0.365    20.995     6.143
    11   8 O        0.856    -0.364    20.982     6.141
    12   1 H        0.926     0.092     1.863     2.134
    13   1 H        0.926     0.093     1.854     2.129
    14   1 H        0.926     0.097     1.814     2.106
    15   1 H        0.923     0.048     2.349     2.397
    16   1 H        0.923     0.048     2.344     2.394

 Mol. C6AA /au·bohr⁶  :       5068.111871
 Mol. C8AA /au·bohr⁸  :     157367.932828
 Mol. α(0) /au        :        113.306595


Wiberg/Mayer (AO) data.
largest (>0.10) Wiberg bond orders for each atom

 ---------------------------------------------------------------------------
     #   Z sym  total        # sym  WBO       # sym  WBO       # sym  WBO
 ---------------------------------------------------------------------------
     1   6 C    3.981 --     7 C    1.392     6 C    1.382    12 H    0.959
     2   6 C    3.983 --     8 C    1.414     6 C    1.369    13 H    0.960
     3   6 C    3.982 --     8 C    1.421     7 C    1.360    14 H    0.959
     4   6 C    3.907 --    10 O    1.861     6 C    1.052    15 H    0.932
     5   6 C    3.907 --    11 O    1.863     7 C    1.051    16 H    0.931
     6   6 C    3.990 --     1 C    1.382     2 C    1.369     4 C    1.052
     7   6 C    3.990 --     1 C    1.392     3 C    1.360     5 C    1.051
     8   6 C    3.943 --     3 C    1.421     2 C    1.414     9 Br   0.985
     9  35 Br   1.117 --     8 C    0.985
    10   8 O    2.063 --     4 C    1.861
    11   8 O    2.063 --     5 C    1.863
    12   1 H    0.991 --     1 C    0.959
    13   1 H    0.991 --     2 C    0.960
    14   1 H    0.990 --     3 C    0.959
    15   1 H    0.997 --     4 C    0.932
    16   1 H    0.996 --     5 C    0.931
 ---------------------------------------------------------------------------

Topologies differ in total number of bonds
Writing topology from bond orders to xtbtopo.mol

molecular dipole:
                 x           y           z       tot (Debye)
 q only:       -0.757       0.047       0.020
   full:       -0.767      -0.244       0.078       2.054
molecular quadrupole (traceless):
                xx          xy          yy          xz          yz          zz
 q only:       -1.850      -8.046      -6.338       2.024       3.340       8.187
  q+dip:        1.866      -7.831     -10.610       1.861       4.320       8.745
   full:       -0.953      -8.028     -11.644       2.176       5.343      12.597

           -------------------------------------------------
          |                Geometry Summary                 |
           -------------------------------------------------

      molecular mass/u    :      213.0279286
   center of mass at/Å    :       -0.1997225       1.1572990      -0.2212227
  moments of inertia/u·Å² :        0.5507664E+03   0.9943417E+03   0.1545108E+04
rotational constants/cm⁻¹ :        0.3060759E-01   0.1695356E-01   0.1091033E-01

 * 12 selected distances

     #   Z          #   Z                                           value/Å
     1   6 C        6   6 C                                       1.3942844
     2   6 C        6   6 C                                       1.3954422
     1   6 C        7   6 C                                       1.3907121
     3   6 C        7   6 C                                       1.3977506
     2   6 C        8   6 C                                       1.3848932
     3   6 C        8   6 C                                       1.3825252
     8   6 C        9  35 Br                                      1.9133049 (max)
     4   6 C       10   8 O                                       1.2082224
     5   6 C       11   8 O                                       1.2081416
     1   6 C       12   1 H                                       1.0801452
     2   6 C       13   1 H                                       1.0795185 (min)
     3   6 C       14   1 H                                       1.0800190

 * 4 distinct bonds (by element types)

   Z      Z             #   av. dist./Å        max./Å        min./Å
   1 H    6 C           3     1.0798943     1.0801452     1.0795185
   6 C    6 C           6     1.3909346     1.3977506     1.3825252
   6 C    8 O           2     1.2081820     1.2082224     1.2081416
   6 C   35 Br          1     1.9133049     1.9133049     1.9133049


optimized geometry written to: xtbopt.xyz


           -------------------------------------------------
          | TOTAL ENERGY              -31.857840980399 Eh   |
          | GRADIENT NORM               0.000821086690 Eh/α |
          | HOMO-LUMO GAP               2.570633561375 eV   |
           -------------------------------------------------

------------------------------------------------------------------------
 * finished run on 2022/04/01 at 14:49:28.176     
------------------------------------------------------------------------
 total:
 * wall-time:     0 d,  0 h,  0 min,  3.137 sec
 *  cpu-time:     0 d,  0 h,  1 min, 51.018 sec
 * ratio c/w:    35.395 speedup
 SCF:
 * wall-time:     0 d,  0 h,  0 min,  0.548 sec
 *  cpu-time:     0 d,  0 h,  0 min, 19.618 sec
 * ratio c/w:    35.771 speedup
 ANC optimizer:
 * wall-time:     0 d,  0 h,  0 min,  2.528 sec
 *  cpu-time:     0 d,  0 h,  1 min, 29.282 sec
 * ratio c/w:    35.322 speedup

