      -----------------------------------------------------------      
     |                   =====================                   |     
     |                           x T B                           |     
     |                   =====================                   |     
     |                         S. Grimme                         |     
     |          Mulliken Center for Theoretical Chemistry        |     
     |                    University of Bonn                     |     
      -----------------------------------------------------------      

   * xtb version 6.4.1 (23d549d) compiled by 'conda@3c73975816cd' on 2022-01-07

   xtb is free software: you can redistribute it and/or modify it under
   the terms of the GNU Lesser General Public License as published by
   the Free Software Foundation, either version 3 of the License, or
   (at your option) any later version.
   
   xtb is distributed in the hope that it will be useful,
   but WITHOUT ANY WARRANTY; without even the implied warranty of
   MERCHANTABILITY or FITNESS FOR A PARTICULAR PURPOSE.  See the
   GNU Lesser General Public License for more details.
   
   Cite this work as:
   * C. Bannwarth, E. Caldeweyher, S. Ehlert, A. Hansen, P. Pracht,
     J. Seibert, S. Spicher, S. Grimme, WIREs Comput. Mol. Sci., 2020, 11,
     e01493. DOI: 10.1002/wcms.1493
   
   for GFN2-xTB:
   * C. Bannwarth, S. Ehlert and S. Grimme., J. Chem. Theory Comput., 2019,
     15, 1652-1671. DOI: 10.1021/acs.jctc.8b01176
   for GFN1-xTB:
   * S. Grimme, C. Bannwarth, P. Shushkov, J. Chem. Theory Comput., 2017,
     13, 1989-2009. DOI: 10.1021/acs.jctc.7b00118
   for GFN0-xTB:
   * P. Pracht, E. Caldeweyher, S. Ehlert, S. Grimme, ChemRxiv, 2019, preprint.
     DOI: 10.26434/chemrxiv.8326202.v1
   for GFN-FF:
   * S. Spicher and S. Grimme, Angew. Chem. Int. Ed., 2020, 59, 15665-15673.
     DOI: 10.1002/anie.202004239
   
   for DFT-D4:
   * E. Caldeweyher, C. Bannwarth and S. Grimme, J. Chem. Phys., 2017,
     147, 034112. DOI: 10.1063/1.4993215
   * E. Caldeweyher, S. Ehlert, A. Hansen, H. Neugebauer, S. Spicher,
     C. Bannwarth and S. Grimme, J. Chem. Phys., 2019, 150, 154122.
     DOI: 10.1063/1.5090222
   * E. Caldeweyher, J.-M. Mewes, S. Ehlert and S. Grimme, Phys. Chem. Chem. Phys.
     2020, 22, 8499-8512. DOI: 10.1039/D0CP00502A
   
   for sTDA-xTB:
   * S. Grimme and C. Bannwarth, J. Chem. Phys., 2016, 145, 054103.
     DOI: 10.1063/1.4959605
   
   in the mass-spec context:
   * V. Asgeirsson, C. Bauer and S. Grimme, Chem. Sci., 2017, 8, 4879.
     DOI: 10.1039/c7sc00601b
   * J. Koopman and S. Grimme, ACS Omega 2019, 4, 12, 15120-15133.
     DOI: 10.1021/acsomega.9b02011
   
   for metadynamics refer to:
   * S. Grimme, J. Chem. Theory Comput., 2019, 155, 2847-2862
     DOI: 10.1021/acs.jctc.9b00143
   
   for SPH calculations refer to:
   * S. Spicher and S. Grimme, J. Chem. Theory Comput., 2021, 17, 1701-1714
     DOI: 10.1021/acs.jctc.0c01306
   
   with help from (in alphabetical order)
   P. Atkinson, C. Bannwarth, F. Bohle, G. Brandenburg, E. Caldeweyher
   M. Checinski, S. Dohm, S. Ehlert, S. Ehrlich, I. Gerasimov, J. Koopman
   C. Lavigne, S. Lehtola, F. März, M. Müller, F. Musil, H. Neugebauer
   J. Pisarek, C. Plett, P. Pracht, J. Seibert, P. Shushkov, S. Spicher
   M. Stahn, M. Steiner, T. Strunk, J. Stückrath, T. Rose, and J. Unsleber
   
 * started run on 2022/04/01 at 14:28:21.394     

           -------------------------------------------------
          |                Calculation Setup                |
           -------------------------------------------------

          program call               : xtb RUQARIUHZQLYSV-BVJTVBEQSA-N_ETKDG_MMFF.xyz --opt --gfn 2 --alpb chcl3 --cycles 10000
          coordinate file            : RUQARIUHZQLYSV-BVJTVBEQSA-N_ETKDG_MMFF.xyz
          omp threads                :                    36
          number of atoms            :                    64
          number of electrons        :                   176
          charge                     :                     0
          spin                       :                   0.0
          first test random number   :      0.29487839935130

   ID    Z sym.   atoms
    1    6 C      1-28
    2   35 Br     29, 30
    3    7 N      31-34
    4    1 H      35-64

           -------------------------------------------------
          |                 G F N 2 - x T B                 |
           -------------------------------------------------

        Reference                      10.1021/acs.jctc.8b01176
      * Hamiltonian:
        H0-scaling (s, p, d)           1.850000    2.230000    2.230000
        zeta-weighting                 0.500000
      * Dispersion:
        s8                             2.700000
        a1                             0.520000
        a2                             5.000000
        s9                             5.000000
      * Repulsion:
        kExp                           1.500000    1.000000
        rExp                           1.000000
      * Coulomb:
        alpha                          2.000000
        third order                    shell-resolved
        anisotropic                    true
        a3                             3.000000
        a5                             4.000000
        cn-shift                       1.200000
        cn-exp                         4.000000
        max-rad                        5.000000

      * Solvation model:               ALPB
        Solvent                        chcl3
        Parameter file                 internal GFN2-xTB/ALPB
        Dielectric constant                4.8100E+00
        Reference state                gsolv [1 M gas/solution]
        Free energy shift                  3.8910E-03 Eh       2.4417E+00 kcal/mol
        Temperature                        2.9815E+02 K
        Density                            1.4900E+00 kg/L
        Solvent mass                       1.1938E+02 g/mol
        Interaction kernel             P16
        Born radius scaling (c1)           1.3274E+00
        Born radii integrator          GBOBC
        Born offset                        0.0000E+00 a0       0.0000E+00 AA
        H-bond correction              false
        Ion screening                  false
        Surface tension                    1.0000E-05 Eh       1.5569E+01 dyn/cm
        Grid points                               230 per atom

          ...................................................
          :                      SETUP                      :
          :.................................................:
          :  # basis functions                 178          :
          :  # atomic orbitals                 176          :
          :  # shells                          100          :
          :  # electrons                       176          :
          :  max. iterations                   250          :
          :  Hamiltonian                  GFN2-xTB          :
          :  restarted?                      false          :
          :  GBSA solvation                   true          :
          :  PC potential                    false          :
          :  electronic temp.          300.0000000     K    :
          :  accuracy                    1.0000000          :
          :  -> integral cutoff          0.2500000E+02      :
          :  -> integral neglect         0.1000000E-07      :
          :  -> SCF convergence          0.1000000E-05 Eh   :
          :  -> wf. convergence          0.1000000E-03 e    :
          :  Broyden damping             0.4000000          :
          ...................................................

 iter      E             dE          RMSdq      gap      omega  full diag
   1    -96.3480566 -0.963481E+02  0.445E+00    2.85       0.0  T
   2    -96.4113351 -0.632784E-01  0.277E+00    2.69       1.0  T
   3    -96.3900940  0.212410E-01  0.935E-01    2.37       1.0  T
   4    -96.4219794 -0.318853E-01  0.389E-01    2.41       1.0  T
   5    -96.4234645 -0.148510E-02  0.204E-01    2.37       1.0  T
   6    -96.4237573 -0.292843E-03  0.126E-01    2.39       1.0  T
   7    -96.4239099 -0.152611E-03  0.893E-02    2.38       1.0  T
   8    -96.4239820 -0.720912E-04  0.530E-02    2.38       1.0  T
   9    -96.4240180 -0.359393E-04  0.178E-02    2.38       1.0  T
  10    -96.4240228 -0.483900E-05  0.737E-03    2.38       1.7  T
  11    -96.4240231 -0.336877E-06  0.410E-03    2.38       3.0  T
  12    -96.4240234 -0.305289E-06  0.102E-03    2.38      12.3  T
  13    -96.4240234 -0.885996E-08  0.710E-04    2.38      17.6  T
  14    -96.4240234 -0.274248E-08  0.351E-04    2.38      35.6  T

   *** convergence criteria satisfied after 14 iterations ***

         #    Occupation            Energy/Eh            Energy/eV
      -------------------------------------------------------------
         1        2.0000           -0.8481923             -23.0805
       ...           ...                  ...                  ...
        82        2.0000           -0.4116939             -11.2028
        83        2.0000           -0.4085555             -11.1174
        84        2.0000           -0.4083493             -11.1117
        85        2.0000           -0.3980220             -10.8307
        86        2.0000           -0.3962061             -10.7813
        87        2.0000           -0.3903976             -10.6233
        88        2.0000           -0.3897498             -10.6056 (HOMO)
        89                         -0.3022141              -8.2237 (LUMO)
        90                         -0.2957168              -8.0469
        91                         -0.2889750              -7.8634
        92                         -0.2823546              -7.6833
        93                         -0.2411111              -6.5610
       ...                                ...                  ...
       176                          0.6184050              16.8277
      -------------------------------------------------------------
                  HL-Gap            0.0875357 Eh            2.3820 eV
             Fermi-level           -0.3459819 Eh           -9.4146 eV

 SCC (total)                   0 d,  0 h,  0 min,  0.733 sec
 SCC setup                      ...        0 min,  0.023 sec (  3.102%)
 Dispersion                     ...        0 min,  0.018 sec (  2.470%)
 classical contributions        ...        0 min,  0.006 sec (  0.844%)
 integral evaluation            ...        0 min,  0.023 sec (  3.175%)
 iterations                     ...        0 min,  0.570 sec ( 77.797%)
 molecular gradient             ...        0 min,  0.089 sec ( 12.127%)
 printout                       ...        0 min,  0.004 sec (  0.478%)

         :::::::::::::::::::::::::::::::::::::::::::::::::::::
         ::                     SUMMARY                     ::
         :::::::::::::::::::::::::::::::::::::::::::::::::::::
         :: total energy             -95.125764901154 Eh    ::
         :: total w/o Gsasa/hb       -95.090093891672 Eh    ::
         :: gradient norm              0.118860747292 Eh/a0 ::
         :: HOMO-LUMO gap              2.381968530547 eV    ::
         ::.................................................::
         :: SCC energy               -96.424023443200 Eh    ::
         :: -> isotropic ES            0.051847535182 Eh    ::
         :: -> anisotropic ES          0.005577052564 Eh    ::
         :: -> anisotropic XC          0.069562067359 Eh    ::
         :: -> dispersion             -0.077273778467 Eh    ::
         :: -> Gsolv                  -0.044957127274 Eh    ::
         ::    -> Gelec               -0.009286117792 Eh    ::
         ::    -> Gsasa               -0.039562028725 Eh    ::
         ::    -> Ghb                  0.000000000000 Eh    ::
         ::    -> Gshift               0.003891019244 Eh    ::
         :: repulsion energy           1.297507734890 Eh    ::
         :: add. restraining           0.000000000000 Eh    ::
         :: total charge               0.000000000000 e     ::
         :::::::::::::::::::::::::::::::::::::::::::::::::::::

      ----------------------------------------------------------- 
     |                   =====================                   |
     |                        A N C O P T                        |
     |                   =====================                   |
     |               Approximate Normal Coordinate               |
     |                Rational Function Optimizer                |
      ----------------------------------------------------------- 

          ...................................................
          :                      SETUP                      :
          :.................................................:
          :   optimization level            normal          :
          :   max. optcycles                 10000          :
          :   ANC micro-cycles                  20          :
          :   degrees of freedom               186          :
          :.................................................:
          :   RF solver                   davidson          :
          :   write xtbopt.log                true          :
          :   linear?                        false          :
          :   energy convergence         0.5000000E-05 Eh   :
          :   grad. convergence          0.1000000E-02 Eh/α :
          :   maximium RF displ.         1.0000000          :
          :   Hlow (freq-cutoff)         0.1000000E-01      :
          :   Hmax (freq-cutoff)         5.0000000          :
          :   S6 in model hess.         20.0000000          :
          ...................................................

generating ANC from model Hessian ...
Using Lindh-Hessian (1995)
 Shifting diagonal of input Hessian by    9.7779991138536668E-003
 Lowest  eigenvalues of input Hessian
    0.000000    0.000000    0.000000    0.000000    0.000000    0.000000
    0.010000    0.010315    0.010518    0.010767    0.011100    0.011232
    0.011740    0.012218    0.012929    0.013476    0.013541    0.014671
 Highest eigenvalues
    1.898799    1.899811    1.997828    2.000796    2.021911    2.023034


........................................................................
.............................. CYCLE    1 ..............................
........................................................................
   1    -96.4240234 -0.964240E+02  0.167E-04    2.38       0.0  T
   2    -96.4240234 -0.954259E-10  0.127E-04    2.38      98.5  T
   3    -96.4240234 -0.109424E-11  0.846E-05    2.38     147.8  T
     SCC iter.                  ...        0 min,  0.121 sec
     gradient                   ...        0 min,  0.095 sec
 * total energy  :   -95.1257649 Eh     change       -0.1989775E-08 Eh
   gradient norm :     0.1188583 Eh/α   predicted     0.0000000E+00 (-100.00%)
   displ. norm   :     0.3144829 α      lambda       -0.2020764E-01
   maximum displ.:     0.0707638 α      in ANC's #29, #53, #127, ...

........................................................................
.............................. CYCLE    2 ..............................
........................................................................
   1    -96.4951617 -0.964952E+02  0.207E-01    2.32       0.0  T
   2    -96.4952173 -0.555812E-04  0.121E-01    2.33       1.0  T
   3    -96.4951867  0.305316E-04  0.370E-02    2.33       1.0  T
   4    -96.4952326 -0.458506E-04  0.941E-03    2.33       1.3  T
   5    -96.4952336 -0.981516E-06  0.442E-03    2.33       2.8  T
   6    -96.4952337 -0.171929E-06  0.261E-03    2.33       4.8  T
   7    -96.4952338 -0.304291E-07  0.152E-03    2.33       8.2  T
   8    -96.4952338 -0.225696E-07  0.103E-03    2.33      12.1  T
   9    -96.4952338 -0.100473E-07  0.500E-04    2.33      25.0  T
  10    -96.4952338 -0.366057E-08  0.224E-04    2.33      55.8  T
     SCC iter.                  ...        0 min,  0.323 sec
     gradient                   ...        0 min,  0.076 sec
 * total energy  :   -95.1394104 Eh     change       -0.1364545E-01 Eh
   gradient norm :     0.0465389 Eh/α   predicted    -0.1110930E-01 ( -18.59%)
   displ. norm   :     0.3387495 α      lambda       -0.6188881E-02
   maximum displ.:     0.1099889 α      in ANC's #16, #29, #25, ...

........................................................................
.............................. CYCLE    3 ..............................
........................................................................
   1    -96.5318310 -0.965318E+02  0.126E-01    2.29       0.0  T
   2    -96.5318839 -0.529159E-04  0.764E-02    2.30       1.0  T
   3    -96.5318652  0.187707E-04  0.348E-02    2.30       1.0  T
   4    -96.5318984 -0.332838E-04  0.870E-03    2.30       1.4  T
   5    -96.5318994 -0.926241E-06  0.436E-03    2.30       2.9  T
   6    -96.5318996 -0.183230E-06  0.283E-03    2.30       4.4  T
   7    -96.5318996 -0.309507E-07  0.199E-03    2.30       6.3  T
   8    -96.5318996 -0.502159E-07  0.107E-03    2.30      11.7  T
   9    -96.5318996 -0.110449E-07  0.452E-04    2.30      27.6  T
  10    -96.5318997 -0.292401E-08  0.207E-04    2.30      60.5  T
     SCC iter.                  ...        0 min,  0.395 sec
     gradient                   ...        0 min,  0.074 sec
 * total energy  :   -95.1432978 Eh     change       -0.3887444E-02 Eh
   gradient norm :     0.0157085 Eh/α   predicted    -0.3455191E-02 ( -11.12%)
   displ. norm   :     0.2881973 α      lambda       -0.1550352E-02
   maximum displ.:     0.1155322 α      in ANC's #11, #16, #25, ...

........................................................................
.............................. CYCLE    4 ..............................
........................................................................
   1    -96.5369270 -0.965369E+02  0.801E-02    2.30       0.0  T
   2    -96.5369430 -0.159179E-04  0.459E-02    2.31       1.0  T
   3    -96.5369357  0.725738E-05  0.204E-02    2.30       1.0  T
   4    -96.5369489 -0.132045E-04  0.482E-03    2.31       2.6  T
   5    -96.5369490 -0.140621E-06  0.246E-03    2.31       5.1  T
   6    -96.5369491 -0.704087E-07  0.147E-03    2.31       8.5  T
   7    -96.5369491 -0.910146E-08  0.107E-03    2.31      11.7  T
   8    -96.5369491 -0.117863E-07  0.577E-04    2.31      21.7  T
   9    -96.5369491 -0.296758E-08  0.200E-04    2.31      62.4  T
     SCC iter.                  ...        0 min,  0.552 sec
     gradient                   ...        0 min,  0.136 sec
 * total energy  :   -95.1443868 Eh     change       -0.1088965E-02 Eh
   gradient norm :     0.0086385 Eh/α   predicted    -0.8396535E-03 ( -22.89%)
   displ. norm   :     0.3169811 α      lambda       -0.8742925E-03
   maximum displ.:     0.1567640 α      in ANC's #11, #16, #25, ...

........................................................................
.............................. CYCLE    5 ..............................
........................................................................
   1    -96.5359894 -0.965360E+02  0.810E-02    2.32       0.0  T
   2    -96.5359976 -0.829296E-05  0.455E-02    2.33       1.0  T
   3    -96.5359929  0.479374E-05  0.148E-02    2.32       1.0  T
   4    -96.5360007 -0.788268E-05  0.393E-03    2.33       3.2  T
   5    -96.5360008 -0.526817E-07  0.170E-03    2.33       7.3  T
   6    -96.5360008 -0.427616E-07  0.970E-04    2.33      12.9  T
   7    -96.5360008 -0.402066E-08  0.693E-04    2.33      18.0  T
     SCC iter.                  ...        0 min,  0.357 sec
     gradient                   ...        0 min,  0.110 sec
 * total energy  :   -95.1449946 Eh     change       -0.6078555E-03 Eh
   gradient norm :     0.0075101 Eh/α   predicted    -0.4810718E-03 ( -20.86%)
   displ. norm   :     0.2961797 α      lambda       -0.4923395E-03
   maximum displ.:     0.1693091 α      in ANC's #11, #10, #8, ...

........................................................................
.............................. CYCLE    6 ..............................
........................................................................
   1    -96.5342665 -0.965343E+02  0.741E-02    2.34       0.0  T
   2    -96.5342715 -0.491704E-05  0.409E-02    2.35       1.0  T
   3    -96.5342709  0.588535E-06  0.905E-03    2.35       1.4  T
   4    -96.5342731 -0.220178E-05  0.359E-03    2.35       3.5  T
   5    -96.5342731 -0.568240E-07  0.151E-03    2.35       8.3  T
   6    -96.5342732 -0.233630E-07  0.102E-03    2.35      12.3  T
   7    -96.5342732 -0.550307E-08  0.715E-04    2.35      17.5  T
   8    -96.5342732 -0.536299E-08  0.266E-04    2.35      47.0  T
     SCC iter.                  ...        0 min,  0.432 sec
     gradient                   ...        0 min,  0.135 sec
 * total energy  :   -95.1453466 Eh     change       -0.3519775E-03 Eh
   gradient norm :     0.0062430 Eh/α   predicted    -0.2677953E-03 ( -23.92%)
   displ. norm   :     0.2840449 α      lambda       -0.3393611E-03
   maximum displ.:     0.1669233 α      in ANC's #11, #10, #5, ...

........................................................................
.............................. CYCLE    7 ..............................
........................................................................
   1    -96.5340686 -0.965341E+02  0.771E-02    2.36       0.0  T
   2    -96.5340740 -0.537473E-05  0.426E-02    2.37       1.0  T
   3    -96.5340749 -0.890594E-06  0.668E-03    2.37       1.9  T
   4    -96.5340755 -0.656792E-06  0.371E-03    2.37       3.4  T
   5    -96.5340757 -0.126047E-06  0.170E-03    2.37       7.4  T
   6    -96.5340757 -0.232524E-07  0.119E-03    2.37      10.5  T
   7    -96.5340757 -0.790514E-08  0.789E-04    2.37      15.9  T
   8    -96.5340757 -0.849818E-08  0.311E-04    2.37      40.2  T
     SCC iter.                  ...        0 min,  0.345 sec
     gradient                   ...        0 min,  0.140 sec
 * total energy  :   -95.1455864 Eh     change       -0.2397554E-03 Eh
   gradient norm :     0.0046709 Eh/α   predicted    -0.1833719E-03 ( -23.52%)
   displ. norm   :     0.2488245 α      lambda       -0.2244121E-03
   maximum displ.:     0.1340221 α      in ANC's #11, #10, #1, ...

........................................................................
.............................. CYCLE    8 ..............................
........................................................................
   1    -96.5354247 -0.965354E+02  0.791E-02    2.37       0.0  T
   2    -96.5354304 -0.573723E-05  0.442E-02    2.38       1.0  T
   3    -96.5354314 -0.101016E-05  0.666E-03    2.38       1.9  T
   4    -96.5354321 -0.693760E-06  0.368E-03    2.38       3.4  T
   5    -96.5354322 -0.139835E-06  0.154E-03    2.38       8.1  T
   6    -96.5354323 -0.181808E-07  0.114E-03    2.38      11.0  T
   7    -96.5354323 -0.793038E-08  0.755E-04    2.38      16.6  T
   8    -96.5354323 -0.794908E-08  0.296E-04    2.38      42.2  T
     SCC iter.                  ...        0 min,  0.142 sec
     gradient                   ...        0 min,  0.022 sec
 * total energy  :   -95.1457487 Eh     change       -0.1623478E-03 Eh
   gradient norm :     0.0043473 Eh/α   predicted    -0.1191558E-03 ( -26.60%)
   displ. norm   :     0.2469744 α      lambda       -0.1862069E-03
   maximum displ.:     0.1107312 α      in ANC's #10, #11, #1, ...

........................................................................
.............................. CYCLE    9 ..............................
........................................................................
   1    -96.5370992 -0.965371E+02  0.857E-02    2.38       0.0  T
   2    -96.5371065 -0.727085E-05  0.479E-02    2.39       1.0  T
   3    -96.5371080 -0.147707E-05  0.672E-03    2.39       1.9  T
   4    -96.5371087 -0.706611E-06  0.358E-03    2.39       3.5  T
   5    -96.5371088 -0.141312E-06  0.129E-03    2.39       9.7  T
   6    -96.5371088 -0.146688E-07  0.928E-04    2.39      13.5  T
   7    -96.5371088 -0.559530E-08  0.648E-04    2.39      19.3  T
     SCC iter.                  ...        0 min,  0.160 sec
     gradient                   ...        0 min,  0.054 sec
 * total energy  :   -95.1458871 Eh     change       -0.1383993E-03 Eh
   gradient norm :     0.0041263 Eh/α   predicted    -0.9878760E-04 ( -28.62%)
   displ. norm   :     0.2707262 α      lambda       -0.1797850E-03
   maximum displ.:     0.1185692 α      in ANC's #1, #10, #5, ...

........................................................................
.............................. CYCLE   10 ..............................
........................................................................
   1    -96.5382891 -0.965383E+02  0.992E-02    2.39       0.0  T
   2    -96.5382992 -0.100937E-04  0.556E-02    2.39       1.0  T
   3    -96.5383010 -0.187114E-05  0.793E-03    2.39       1.6  T
   4    -96.5383022 -0.114439E-05  0.383E-03    2.39       3.3  T
   5    -96.5383023 -0.147845E-06  0.114E-03    2.39      11.0  T
   6    -96.5383024 -0.184395E-07  0.666E-04    2.39      18.8  T
   7    -96.5383024 -0.262425E-08  0.480E-04    2.39      26.0  T
     SCC iter.                  ...        0 min,  0.278 sec
     gradient                   ...        0 min,  0.053 sec
 * total energy  :   -95.1460216 Eh     change       -0.1345001E-03 Eh
   gradient norm :     0.0037142 Eh/α   predicted    -0.9648643E-04 ( -28.26%)
   displ. norm   :     0.2747297 α      lambda       -0.1654116E-03
   maximum displ.:     0.1340092 α      in ANC's #1, #19, #10, ...

........................................................................
.............................. CYCLE   11 ..............................
........................................................................
   1    -96.5385116 -0.965385E+02  0.986E-02    2.39       0.0  T
   2    -96.5385218 -0.102525E-04  0.551E-02    2.40       1.0  T
   3    -96.5385236 -0.179014E-05  0.796E-03    2.40       1.6  T
   4    -96.5385249 -0.127978E-05  0.362E-03    2.40       3.4  T
   5    -96.5385250 -0.119892E-06  0.101E-03    2.40      12.4  T
   6    -96.5385251 -0.176118E-07  0.404E-04    2.40      30.9  T
   7    -96.5385251 -0.112456E-08  0.255E-04    2.40      49.0  T
     SCC iter.                  ...        0 min,  0.454 sec
     gradient                   ...        0 min,  0.097 sec
 * total energy  :   -95.1461453 Eh     change       -0.1237317E-03 Eh
   gradient norm :     0.0037019 Eh/α   predicted    -0.8895188E-04 ( -28.11%)
   displ. norm   :     0.2669289 α      lambda       -0.1458345E-03
   maximum displ.:     0.1437896 α      in ANC's #1, #19, #12, ...

........................................................................
.............................. CYCLE   12 ..............................
........................................................................
   1    -96.5382618 -0.965383E+02  0.908E-02    2.40       0.0  T
   2    -96.5382701 -0.827893E-05  0.508E-02    2.40       1.0  T
   3    -96.5382714 -0.126529E-05  0.763E-03    2.40       1.6  T
   4    -96.5382726 -0.125284E-05  0.341E-03    2.40       3.7  T
   5    -96.5382727 -0.907613E-07  0.107E-03    2.40      11.7  T
   6    -96.5382727 -0.145064E-07  0.576E-04    2.40      21.7  T
   7    -96.5382727 -0.189421E-08  0.416E-04    2.40      30.0  T
     SCC iter.                  ...        0 min,  0.623 sec
     gradient                   ...        0 min,  0.131 sec
 * total energy  :   -95.1462543 Eh     change       -0.1089748E-03 Eh
   gradient norm :     0.0036473 Eh/α   predicted    -0.7811436E-04 ( -28.32%)
   displ. norm   :     0.2612372 α      lambda       -0.1210995E-03
   maximum displ.:     0.1528944 α      in ANC's #1, #19, #7, ...

........................................................................
.............................. CYCLE   13 ..............................
........................................................................
   1    -96.5375340 -0.965375E+02  0.813E-02    2.41       0.0  T
   2    -96.5375400 -0.606658E-05  0.456E-02    2.41       1.0  T
   3    -96.5375410 -0.930035E-06  0.675E-03    2.41       1.9  T
   4    -96.5375419 -0.981508E-06  0.303E-03    2.41       4.1  T
   5    -96.5375420 -0.627368E-07  0.990E-04    2.41      12.6  T
   6    -96.5375420 -0.890023E-08  0.631E-04    2.41      19.8  T
     SCC iter.                  ...        0 min,  0.385 sec
     gradient                   ...        0 min,  0.161 sec
 * total energy  :   -95.1463477 Eh     change       -0.9338721E-04 Eh
   gradient norm :     0.0032215 Eh/α   predicted    -0.6468387E-04 ( -30.74%)
   displ. norm   :     0.2628182 α      lambda       -0.1167342E-03
   maximum displ.:     0.1631397 α      in ANC's #1, #7, #19, ...

........................................................................
.............................. CYCLE   14 ..............................
........................................................................
   1    -96.5377304 -0.965377E+02  0.696E-02    2.42       0.0  T
   2    -96.5377342 -0.382289E-05  0.392E-02    2.42       1.0  T
   3    -96.5377348 -0.634977E-06  0.547E-03    2.42       2.3  T
   4    -96.5377354 -0.571495E-06  0.257E-03    2.42       4.9  T
   5    -96.5377354 -0.487689E-07  0.875E-04    2.42      14.3  T
   6    -96.5377355 -0.692926E-08  0.569E-04    2.42      22.0  T
     SCC iter.                  ...        0 min,  0.292 sec
     gradient                   ...        0 min,  0.134 sec
 * total energy  :   -95.1464387 Eh     change       -0.9099409E-04 Eh
   gradient norm :     0.0027095 Eh/α   predicted    -0.6240250E-04 ( -31.42%)
   displ. norm   :     0.3157359 α      lambda       -0.1200339E-03
   maximum displ.:     0.1985714 α      in ANC's #1, #7, #19, ...

........................................................................
.............................. CYCLE   15 ..............................
........................................................................
   1    -96.5367947 -0.965368E+02  0.794E-02    2.43       0.0  T
   2    -96.5367996 -0.488674E-05  0.446E-02    2.43       1.0  T
   3    -96.5368003 -0.739214E-06  0.636E-03    2.43       2.0  T
   4    -96.5368012 -0.842951E-06  0.293E-03    2.43       4.3  T
   5    -96.5368012 -0.599742E-07  0.926E-04    2.43      13.5  T
   6    -96.5368013 -0.732993E-08  0.620E-04    2.43      20.2  T
     SCC iter.                  ...        0 min,  0.195 sec
     gradient                   ...        0 min,  0.075 sec
 * total energy  :   -95.1465331 Eh     change       -0.9444907E-04 Eh
   gradient norm :     0.0034351 Eh/α   predicted    -0.6600320E-04 ( -30.12%)
   displ. norm   :     0.3371344 α      lambda       -0.1577239E-03
   maximum displ.:     0.2118105 α      in ANC's #1, #7, #3, ...

........................................................................
.............................. CYCLE   16 ..............................
........................................................................
   1    -96.5396128 -0.965396E+02  0.570E-02    2.44       0.0  T
   2    -96.5396144 -0.163347E-05  0.323E-02    2.44       1.0  T
   3    -96.5396148 -0.356166E-06  0.399E-03    2.44       3.1  T
   4    -96.5396149 -0.984215E-07  0.238E-03    2.44       5.3  T
   5    -96.5396149 -0.624780E-07  0.125E-03    2.44      10.0  T
   6    -96.5396149 -0.127206E-07  0.848E-04    2.44      14.7  T
   7    -96.5396149 -0.223729E-08  0.455E-04    2.44      27.5  T
     SCC iter.                  ...        0 min,  0.227 sec
     gradient                   ...        0 min,  0.053 sec
 * total energy  :   -95.1466401 Eh     change       -0.1070005E-03 Eh
   gradient norm :     0.0066446 Eh/α   predicted    -0.8782609E-04 ( -17.92%)
   displ. norm   :     0.4312005 α      lambda       -0.1818293E-03
   maximum displ.:     0.2735403 α      in ANC's #1, #7, #12, ...

........................................................................
.............................. CYCLE   17 ..............................
........................................................................
   1    -96.5375834 -0.965376E+02  0.904E-02    2.45       0.0  T
   2    -96.5375887 -0.532933E-05  0.509E-02    2.45       1.0  T
   3    -96.5375894 -0.713129E-06  0.731E-03    2.45       1.7  T
   4    -96.5375905 -0.103330E-05  0.375E-03    2.45       3.3  T
   5    -96.5375906 -0.122332E-06  0.151E-03    2.45       8.3  T
   6    -96.5375906 -0.125150E-07  0.112E-03    2.45      11.1  T
   7    -96.5375906 -0.538101E-08  0.659E-04    2.45      19.0  T
   8    -96.5375906 -0.653974E-08  0.245E-04    2.45      50.9  T
     SCC iter.                  ...        0 min,  0.392 sec
     gradient                   ...        0 min,  0.140 sec
 * total energy  :   -95.1467835 Eh     change       -0.1433251E-03 Eh
   gradient norm :     0.0061776 Eh/α   predicted    -0.1078191E-03 ( -24.77%)
   displ. norm   :     0.4230408 α      lambda       -0.2381303E-03
   maximum displ.:     0.2690562 α      in ANC's #1, #3, #7, ...

........................................................................
.............................. CYCLE   18 ..............................
........................................................................
   1    -96.5379403 -0.965379E+02  0.733E-02    2.45       0.0  T
   2    -96.5379426 -0.223418E-05  0.411E-02    2.45       1.0  T
   3    -96.5379430 -0.412667E-06  0.563E-03    2.45       2.2  T
   4    -96.5379432 -0.273984E-06  0.344E-03    2.45       3.6  T
   5    -96.5379434 -0.154959E-06  0.172E-03    2.45       7.3  T
   6    -96.5379434 -0.183653E-07  0.127E-03    2.45       9.9  T
   7    -96.5379434 -0.934985E-08  0.560E-04    2.45      22.3  T
   8    -96.5379434 -0.496455E-08  0.198E-04    2.45      63.3  T
     SCC iter.                  ...        0 min,  0.440 sec
     gradient                   ...        0 min,  0.128 sec
 * total energy  :   -95.1469855 Eh     change       -0.2020862E-03 Eh
   gradient norm :     0.0057921 Eh/α   predicted    -0.1403764E-03 ( -30.54%)
   displ. norm   :     0.5739161 α      lambda       -0.4026137E-03
   maximum displ.:     0.3538390 α      in ANC's #1, #3, #7, ...

........................................................................
.............................. CYCLE   19 ..............................
........................................................................
   1    -96.5392251 -0.965392E+02  0.100E-01    2.44       0.0  T
   2    -96.5392282 -0.308250E-05  0.560E-02    2.44       1.0  T
   3    -96.5392286 -0.425803E-06  0.800E-03    2.44       1.6  T
   4    -96.5392292 -0.594689E-06  0.496E-03    2.44       2.5  T
   5    -96.5392295 -0.298741E-06  0.247E-03    2.44       5.1  T
   6    -96.5392295 -0.346226E-07  0.184E-03    2.44       6.8  T
   7    -96.5392295 -0.217300E-07  0.621E-04    2.44      20.1  T
   8    -96.5392295 -0.694028E-08  0.184E-04    2.44      67.8  T
     SCC iter.                  ...        0 min,  0.475 sec
     gradient                   ...        0 min,  0.149 sec
 * total energy  :   -95.1473242 Eh     change       -0.3386233E-03 Eh
   gradient norm :     0.0057947 Eh/α   predicted    -0.2676197E-03 ( -20.97%)
   displ. norm   :     0.6790540 α      lambda       -0.4741769E-03
   maximum displ.:     0.4044998 α      in ANC's #1, #3, #12, ...

........................................................................
.............................. CYCLE   20 ..............................
........................................................................
   1    -96.5381905 -0.965382E+02  0.126E-01    2.42       0.0  T
   2    -96.5381960 -0.550939E-05  0.702E-02    2.42       1.0  T
   3    -96.5381965 -0.579392E-06  0.107E-02    2.42       1.2  T
   4    -96.5381977 -0.120957E-05  0.658E-03    2.42       1.9  T
   5    -96.5381982 -0.482866E-06  0.314E-03    2.42       4.0  T
   6    -96.5381983 -0.537130E-07  0.237E-03    2.42       5.3  T
   7    -96.5381983 -0.371689E-07  0.846E-04    2.42      14.8  T
   8    -96.5381983 -0.126115E-07  0.275E-04    2.42      45.5  T
     SCC iter.                  ...        0 min,  0.485 sec
     gradient                   ...        0 min,  0.176 sec
 * total energy  :   -95.1477031 Eh     change       -0.3788855E-03 Eh
   gradient norm :     0.0087210 Eh/α   predicted    -0.3464141E-03 (  -8.57%)
   displ. norm   :     0.5459135 α      lambda       -0.5988386E-03
   maximum displ.:     0.2855167 α      in ANC's #3, #1, #12, ...
 * RMSD in coord.:     0.6197806 α      energy gain  -0.2193816E-01 Eh

generating ANC from model Hessian ...
Using Lindh-Hessian (1995)
 Shifting diagonal of input Hessian by    9.7294904407176277E-003
 Lowest  eigenvalues of input Hessian
    0.000000    0.000000    0.000000    0.000000    0.000000    0.000000
    0.010000    0.010328    0.010600    0.010866    0.011112    0.011241
    0.011902    0.012680    0.013599    0.013664    0.014019    0.014746
 Highest eigenvalues
    1.978524    1.981501    2.144775    2.147274    2.166934    2.169587


........................................................................
.............................. CYCLE   21 ..............................
........................................................................
   1    -96.5444815 -0.965445E+02  0.156E-01    2.40       0.0  T
   2    -96.5444981 -0.165692E-04  0.876E-02    2.40       1.0  T
   3    -96.5445007 -0.259054E-05  0.129E-02    2.40       1.0  T
   4    -96.5445024 -0.173926E-05  0.746E-03    2.40       1.7  T
   5    -96.5445031 -0.643003E-06  0.341E-03    2.40       3.7  T
   6    -96.5445032 -0.834189E-07  0.237E-03    2.40       5.3  T
   7    -96.5445032 -0.229197E-07  0.139E-03    2.40       9.0  T
   8    -96.5445032 -0.258454E-07  0.419E-04    2.40      29.9  T
   9    -96.5445032 -0.313865E-08  0.236E-04    2.40      52.9  T
     SCC iter.                  ...        0 min,  0.529 sec
     gradient                   ...        0 min,  0.146 sec
 * total energy  :   -95.1479396 Eh     change       -0.2365144E-03 Eh
   gradient norm :     0.0139246 Eh/α   predicted     0.0000000E+00 (-100.00%)
   displ. norm   :     0.0877979 α      lambda       -0.3788343E-03
   maximum displ.:     0.0345783 α      in ANC's #12, #3, #16, ...

........................................................................
.............................. CYCLE   22 ..............................
........................................................................
   1    -96.5417361 -0.965417E+02  0.323E-02    2.40       0.0  T
   2    -96.5417377 -0.157952E-05  0.187E-02    2.40       1.0  T
   3    -96.5417374  0.322287E-06  0.470E-03    2.40       2.7  T
   4    -96.5417380 -0.606158E-06  0.176E-03    2.40       7.1  T
   5    -96.5417380 -0.318981E-07  0.117E-03    2.40      10.7  T
   6    -96.5417380 -0.837801E-08  0.784E-04    2.40      15.9  T
   7    -96.5417380 -0.552266E-08  0.521E-04    2.40      24.0  T
     SCC iter.                  ...        0 min,  0.531 sec
     gradient                   ...        0 min,  0.169 sec
 * total energy  :   -95.1482088 Eh     change       -0.2692540E-03 Eh
   gradient norm :     0.0058974 Eh/α   predicted    -0.1908783E-03 ( -29.11%)
   displ. norm   :     0.1492877 α      lambda       -0.2539667E-03
   maximum displ.:     0.0691611 α      in ANC's #3, #12, #9, ...

........................................................................
.............................. CYCLE   23 ..............................
........................................................................
   1    -96.5395855 -0.965396E+02  0.384E-02    2.41       0.0  T
   2    -96.5395870 -0.141755E-05  0.221E-02    2.41       1.0  T
   3    -96.5395867  0.243429E-06  0.450E-03    2.41       2.8  T
   4    -96.5395873 -0.594582E-06  0.191E-03    2.41       6.5  T
   5    -96.5395873 -0.321664E-07  0.123E-03    2.41      10.1  T
   6    -96.5395873 -0.982803E-08  0.826E-04    2.41      15.1  T
   7    -96.5395873 -0.553425E-08  0.562E-04    2.41      22.2  T
     SCC iter.                  ...        0 min,  0.448 sec
     gradient                   ...        0 min,  0.102 sec
 * total energy  :   -95.1483789 Eh     change       -0.1701043E-03 Eh
   gradient norm :     0.0040697 Eh/α   predicted    -0.1298256E-03 ( -23.68%)
   displ. norm   :     0.1710047 α      lambda       -0.1511169E-03
   maximum displ.:     0.0850713 α      in ANC's #3, #12, #7, ...

........................................................................
.............................. CYCLE   24 ..............................
........................................................................
   1    -96.5389832 -0.965390E+02  0.374E-02    2.42       0.0  T
   2    -96.5389841 -0.927827E-06  0.216E-02    2.42       1.0  T
   3    -96.5389841  0.507262E-08  0.309E-03    2.42       4.0  T
   4    -96.5389844 -0.279885E-06  0.143E-03    2.42       8.7  T
   5    -96.5389844 -0.217793E-07  0.614E-04    2.42      20.4  T
   6    -96.5389844 -0.270315E-08  0.419E-04    2.42      29.8  T
     SCC iter.                  ...        0 min,  1.000 sec
     gradient                   ...        0 min,  0.164 sec
 * total energy  :   -95.1485017 Eh     change       -0.1227503E-03 Eh
   gradient norm :     0.0064516 Eh/α   predicted    -0.7776884E-04 ( -36.64%)
   displ. norm   :     0.3474577 α      lambda       -0.2797231E-03
   maximum displ.:     0.1722694 α      in ANC's #12, #3, #7, ...

........................................................................
.............................. CYCLE   25 ..............................
........................................................................
   1    -96.5384075 -0.965384E+02  0.678E-02    2.43       0.0  T
   2    -96.5384105 -0.301522E-05  0.390E-02    2.43       1.0  T
   3    -96.5384109 -0.386616E-06  0.462E-03    2.43       2.7  T
   4    -96.5384114 -0.467578E-06  0.244E-03    2.43       5.1  T
   5    -96.5384114 -0.848997E-07  0.746E-04    2.43      16.8  T
   6    -96.5384114 -0.576375E-08  0.453E-04    2.43      27.6  T
     SCC iter.                  ...        0 min,  0.742 sec
     gradient                   ...        0 min,  0.086 sec
 * total energy  :   -95.1487246 Eh     change       -0.2228754E-03 Eh
   gradient norm :     0.0089337 Eh/α   predicted    -0.1567474E-03 ( -29.67%)
   displ. norm   :     0.4507281 α      lambda       -0.3559717E-03
   maximum displ.:     0.2232537 α      in ANC's #3, #12, #7, ...

........................................................................
.............................. CYCLE   26 ..............................
........................................................................
   1    -96.5377671 -0.965378E+02  0.808E-02    2.44       0.0  T
   2    -96.5377715 -0.434474E-05  0.464E-02    2.44       1.0  T
   3    -96.5377724 -0.933165E-06  0.476E-03    2.44       2.6  T
   4    -96.5377727 -0.246354E-06  0.272E-03    2.44       4.6  T
   5    -96.5377728 -0.127602E-06  0.783E-04    2.44      16.0  T
   6    -96.5377728 -0.114161E-07  0.406E-04    2.44      30.8  T
     SCC iter.                  ...        0 min,  0.284 sec
     gradient                   ...        0 min,  0.100 sec
 * total energy  :   -95.1490046 Eh     change       -0.2800284E-03 Eh
   gradient norm :     0.0102762 Eh/α   predicted    -0.2141481E-03 ( -23.53%)
   displ. norm   :     0.4412823 α      lambda       -0.4511783E-03
   maximum displ.:     0.2233659 α      in ANC's #3, #12, #7, ...

........................................................................
.............................. CYCLE   27 ..............................
........................................................................
   1    -96.5392032 -0.965392E+02  0.738E-02    2.44       0.0  T
   2    -96.5392069 -0.378980E-05  0.423E-02    2.44       1.0  T
   3    -96.5392078 -0.846120E-06  0.459E-03    2.44       2.7  T
   4    -96.5392080 -0.202167E-06  0.243E-03    2.44       5.1  T
   5    -96.5392080 -0.571399E-07  0.983E-04    2.44      12.7  T
   6    -96.5392081 -0.148037E-07  0.640E-04    2.44      19.5  T
     SCC iter.                  ...        0 min,  0.334 sec
     gradient                   ...        0 min,  0.082 sec
 * total energy  :   -95.1493709 Eh     change       -0.3662983E-03 Eh
   gradient norm :     0.0083116 Eh/α   predicted    -0.2695332E-03 ( -26.42%)
   displ. norm   :     0.4467427 α      lambda       -0.5299074E-03
   maximum displ.:     0.2294757 α      in ANC's #3, #12, #7, ...

........................................................................
.............................. CYCLE   28 ..............................
........................................................................
   1    -96.5424845 -0.965425E+02  0.745E-02    2.43       0.0  T
   2    -96.5424880 -0.358778E-05  0.427E-02    2.43       1.0  T
   3    -96.5424885 -0.428184E-06  0.549E-03    2.43       2.3  T
   4    -96.5424890 -0.516461E-06  0.287E-03    2.43       4.4  T
   5    -96.5424891 -0.733926E-07  0.142E-03    2.43       8.8  T
   6    -96.5424891 -0.209048E-07  0.929E-04    2.43      13.5  T
   7    -96.5424891 -0.459033E-08  0.614E-04    2.43      20.3  T
     SCC iter.                  ...        0 min,  0.231 sec
     gradient                   ...        0 min,  0.097 sec
 * total energy  :   -95.1497573 Eh     change       -0.3863720E-03 Eh
   gradient norm :     0.0054429 Eh/α   predicted    -0.3178328E-03 ( -17.74%)
   displ. norm   :     0.5780884 α      lambda       -0.3427514E-03
   maximum displ.:     0.3012823 α      in ANC's #3, #12, #7, ...

........................................................................
.............................. CYCLE   29 ..............................
........................................................................
   1    -96.5370739 -0.965371E+02  0.935E-02    2.42       0.0  T
   2    -96.5370792 -0.530273E-05  0.537E-02    2.43       1.0  T
   3    -96.5370799 -0.721753E-06  0.617E-03    2.43       2.0  T
   4    -96.5370805 -0.579834E-06  0.326E-03    2.43       3.8  T
   5    -96.5370806 -0.966777E-07  0.146E-03    2.43       8.6  T
   6    -96.5370806 -0.281238E-07  0.809E-04    2.43      15.4  T
   7    -96.5370806 -0.258551E-08  0.562E-04    2.43      22.2  T
     SCC iter.                  ...        0 min,  0.489 sec
     gradient                   ...        0 min,  0.140 sec
 * total energy  :   -95.1498736 Eh     change       -0.1163555E-03 Eh
   gradient norm :     0.0102695 Eh/α   predicted    -0.2286489E-03 (  96.51%)
   displ. norm   :     0.1409313 α      lambda       -0.4089243E-03
   maximum displ.:     0.0577884 α      in ANC's #3, #7, #16, ...

........................................................................
.............................. CYCLE   30 ..............................
........................................................................
   1    -96.5438437 -0.965438E+02  0.430E-02    2.42       0.0  T
   2    -96.5438469 -0.320795E-05  0.241E-02    2.42       1.0  T
   3    -96.5438468  0.703166E-07  0.492E-03    2.42       2.5  T
   4    -96.5438472 -0.397233E-06  0.204E-03    2.42       6.1  T
   5    -96.5438473 -0.636543E-07  0.112E-03    2.42      11.2  T
   6    -96.5438473 -0.707826E-08  0.576E-04    2.42      21.7  T
   7    -96.5438473 -0.176527E-08  0.404E-04    2.42      30.9  T
     SCC iter.                  ...        0 min,  0.522 sec
     gradient                   ...        0 min,  0.156 sec
 * total energy  :   -95.1500496 Eh     change       -0.1759559E-03 Eh
   gradient norm :     0.0052526 Eh/α   predicted    -0.2085919E-03 (  18.55%)
   displ. norm   :     0.1791633 α      lambda       -0.9557069E-04
   maximum displ.:     0.1041595 α      in ANC's #3, #7, #12, ...

........................................................................
.............................. CYCLE   31 ..............................
........................................................................
   1    -96.5423802 -0.965424E+02  0.284E-02    2.42       0.0  T
   2    -96.5423806 -0.381949E-06  0.163E-02    2.42       1.0  T
   3    -96.5423806 -0.297865E-07  0.209E-03    2.42       6.0  T
   4    -96.5423807 -0.695885E-07  0.117E-03    2.42      10.7  T
   5    -96.5423807 -0.163270E-07  0.514E-04    2.42      24.3  T
   6    -96.5423807 -0.210126E-08  0.346E-04    2.42      36.1  T
     SCC iter.                  ...        0 min,  0.333 sec
     gradient                   ...        0 min,  0.143 sec
 * total energy  :   -95.1501270 Eh     change       -0.7743334E-04 Eh
   gradient norm :     0.0038683 Eh/α   predicted    -0.4939464E-04 ( -36.21%)
   displ. norm   :     0.3422836 α      lambda       -0.1716879E-03
   maximum displ.:     0.2079044 α      in ANC's #3, #7, #12, ...

........................................................................
.............................. CYCLE   32 ..............................
........................................................................
   1    -96.5406779 -0.965407E+02  0.575E-02    2.43       0.0  T
   2    -96.5406793 -0.132914E-05  0.328E-02    2.43       1.0  T
   3    -96.5406790  0.229829E-06  0.505E-03    2.43       2.5  T
   4    -96.5406797 -0.656391E-06  0.260E-03    2.43       4.8  T
   5    -96.5406798 -0.668354E-07  0.112E-03    2.43      11.1  T
   6    -96.5406798 -0.874903E-08  0.814E-04    2.43      15.4  T
   7    -96.5406798 -0.325143E-08  0.497E-04    2.43      25.2  T
     SCC iter.                  ...        0 min,  0.942 sec
     gradient                   ...        0 min,  0.105 sec
 * total energy  :   -95.1502319 Eh     change       -0.1049505E-03 Eh
   gradient norm :     0.0041252 Eh/α   predicted    -0.9590177E-04 (  -8.62%)
   displ. norm   :     0.1406344 α      lambda       -0.8310249E-04
   maximum displ.:     0.0792228 α      in ANC's #3, #7, #10, ...

........................................................................
.............................. CYCLE   33 ..............................
........................................................................
   1    -96.5421818 -0.965422E+02  0.304E-02    2.43       0.0  T
   2    -96.5421824 -0.592529E-06  0.170E-02    2.43       1.0  T
   3    -96.5421823  0.302079E-07  0.280E-03    2.43       4.5  T
   4    -96.5421825 -0.187186E-06  0.147E-03    2.43       8.5  T
   5    -96.5421825 -0.218650E-07  0.684E-04    2.43      18.3  T
   6    -96.5421825 -0.370390E-08  0.464E-04    2.43      27.0  T
     SCC iter.                  ...        0 min,  0.296 sec
     gradient                   ...        0 min,  0.136 sec
 * total energy  :   -95.1502892 Eh     change       -0.5726648E-04 Eh
   gradient norm :     0.0039868 Eh/α   predicted    -0.4237493E-04 ( -26.00%)
   displ. norm   :     0.2615397 α      lambda       -0.9333283E-04
   maximum displ.:     0.1646215 α      in ANC's #3, #7, #1, ...

........................................................................
.............................. CYCLE   34 ..............................
........................................................................
   1    -96.5430430 -0.965430E+02  0.485E-02    2.43       0.0  T
   2    -96.5430440 -0.973340E-06  0.271E-02    2.43       1.0  T
   3    -96.5430440  0.149538E-07  0.431E-03    2.43       2.9  T
   4    -96.5430443 -0.327333E-06  0.246E-03    2.43       5.1  T
   5    -96.5430444 -0.642921E-07  0.107E-03    2.43      11.6  T
   6    -96.5430444 -0.571357E-08  0.803E-04    2.43      15.6  T
   7    -96.5430444 -0.266714E-08  0.397E-04    2.43      31.5  T
     SCC iter.                  ...        0 min,  0.390 sec
     gradient                   ...        0 min,  0.125 sec
 * total energy  :   -95.1503554 Eh     change       -0.6613730E-04 Eh
   gradient norm :     0.0035526 Eh/α   predicted    -0.4985909E-04 ( -24.61%)
   displ. norm   :     0.2565014 α      lambda       -0.7066395E-04
   maximum displ.:     0.1648681 α      in ANC's #3, #7, #1, ...

........................................................................
.............................. CYCLE   35 ..............................
........................................................................
   1    -96.5436423 -0.965436E+02  0.473E-02    2.42       0.0  T
   2    -96.5436433 -0.956649E-06  0.263E-02    2.42       1.0  T
   3    -96.5436434 -0.149042E-06  0.379E-03    2.42       3.3  T
   4    -96.5436435 -0.130793E-06  0.228E-03    2.42       5.5  T
   5    -96.5436436 -0.611864E-07  0.109E-03    2.42      11.5  T
   6    -96.5436436 -0.890748E-08  0.808E-04    2.42      15.5  T
   7    -96.5436436 -0.307693E-08  0.328E-04    2.42      38.1  T
     SCC iter.                  ...        0 min,  0.431 sec
     gradient                   ...        0 min,  0.134 sec
 * total energy  :   -95.1504034 Eh     change       -0.4805640E-04 Eh
   gradient norm :     0.0020642 Eh/α   predicted    -0.3765763E-04 ( -21.64%)
   displ. norm   :     0.1714155 α      lambda       -0.3481098E-04
   maximum displ.:     0.1134446 α      in ANC's #3, #2, #7, ...

........................................................................
.............................. CYCLE   36 ..............................
........................................................................
   1    -96.5439767 -0.965440E+02  0.331E-02    2.41       0.0  T
   2    -96.5439773 -0.551723E-06  0.183E-02    2.41       1.0  T
   3    -96.5439774 -0.132548E-06  0.253E-03    2.41       4.9  T
   4    -96.5439774 -0.284105E-07  0.147E-03    2.41       8.5  T
   5    -96.5439775 -0.253466E-07  0.746E-04    2.41      16.8  T
   6    -96.5439775 -0.404785E-08  0.555E-04    2.41      22.5  T
     SCC iter.                  ...        0 min,  0.286 sec
     gradient                   ...        0 min,  0.136 sec
 * total energy  :   -95.1504264 Eh     change       -0.2303325E-04 Eh
   gradient norm :     0.0022005 Eh/α   predicted    -0.1792366E-04 ( -22.18%)
   displ. norm   :     0.0820326 α      lambda       -0.1988944E-04
   maximum displ.:     0.0555708 α      in ANC's #3, #2, #1, ...

........................................................................
.............................. CYCLE   37 ..............................
........................................................................
   1    -96.5439135 -0.965439E+02  0.159E-02    2.41       0.0  T
   2    -96.5439137 -0.140534E-06  0.881E-03    2.41       1.4  T
   3    -96.5439137 -0.312305E-07  0.130E-03    2.41       9.6  T
   4    -96.5439137 -0.120390E-07  0.801E-04    2.41      15.6  T
   5    -96.5439137 -0.522675E-08  0.430E-04    2.41      29.1  T
     SCC iter.                  ...        0 min,  0.265 sec
     gradient                   ...        0 min,  0.147 sec
 * total energy  :   -95.1504421 Eh     change       -0.1567870E-04 Eh
   gradient norm :     0.0016068 Eh/α   predicted    -0.1001305E-04 ( -36.14%)
   displ. norm   :     0.1366857 α      lambda       -0.2538433E-04
   maximum displ.:     0.0767109 α      in ANC's #2, #3, #7, ...

........................................................................
.............................. CYCLE   38 ..............................
........................................................................
   1    -96.5439549 -0.965440E+02  0.253E-02    2.41       0.0  T
   2    -96.5439553 -0.373465E-06  0.142E-02    2.41       1.0  T
   3    -96.5439554 -0.893525E-07  0.199E-03    2.41       6.3  T
   4    -96.5439554 -0.273222E-07  0.126E-03    2.41       9.9  T
   5    -96.5439555 -0.189142E-07  0.667E-04    2.41      18.7  T
   6    -96.5439555 -0.297122E-08  0.488E-04    2.41      25.6  T
     SCC iter.                  ...        0 min,  0.354 sec
     gradient                   ...        0 min,  0.140 sec
 * total energy  :   -95.1504658 Eh     change       -0.2364158E-04 Eh
   gradient norm :     0.0017048 Eh/α   predicted    -0.1279968E-04 ( -45.86%)
   displ. norm   :     0.0922550 α      lambda       -0.1652223E-04
   maximum displ.:     0.0570407 α      in ANC's #3, #2, #7, ...

........................................................................
.............................. CYCLE   39 ..............................
........................................................................
   1    -96.5422206 -0.965422E+02  0.184E-02    2.41       0.0  T
   2    -96.5422209 -0.249414E-06  0.103E-02    2.41       1.2  T
   3    -96.5422208  0.222500E-07  0.197E-03    2.41       6.3  T
   4    -96.5422209 -0.888753E-07  0.103E-03    2.41      12.1  T
   5    -96.5422209 -0.802360E-08  0.556E-04    2.41      22.5  T
   6    -96.5422209 -0.217096E-08  0.366E-04    2.41      34.1  T
     SCC iter.                  ...        0 min,  0.275 sec
     gradient                   ...        0 min,  0.144 sec
 * total energy  :   -95.1504788 Eh     change       -0.1304877E-04 Eh
   gradient norm :     0.0020429 Eh/α   predicted    -0.8298736E-05 ( -36.40%)
   displ. norm   :     0.0763208 α      lambda       -0.1558437E-04
   maximum displ.:     0.0404294 α      in ANC's #2, #7, #3, ...

........................................................................
.............................. CYCLE   40 ..............................
........................................................................
   1    -96.5423443 -0.965423E+02  0.153E-02    2.41       0.0  T
   2    -96.5423444 -0.122089E-06  0.858E-03    2.41       1.5  T
   3    -96.5423444  0.518718E-08  0.149E-03    2.41       8.4  T
   4    -96.5423445 -0.483912E-07  0.829E-04    2.41      15.1  T
   5    -96.5423445 -0.535638E-08  0.398E-04    2.41      31.4  T
     SCC iter.                  ...        0 min,  0.235 sec
     gradient                   ...        0 min,  0.133 sec
 * total energy  :   -95.1504913 Eh     change       -0.1250181E-04 Eh
   gradient norm :     0.0016323 Eh/α   predicted    -0.7838549E-05 ( -37.30%)
   displ. norm   :     0.2180518 α      lambda       -0.2544165E-04
   maximum displ.:     0.1227821 α      in ANC's #3, #2, #7, ...

........................................................................
.............................. CYCLE   41 ..............................
........................................................................
   1    -96.5428606 -0.965429E+02  0.458E-02    2.41       0.0  T
   2    -96.5428615 -0.944918E-06  0.256E-02    2.41       1.0  T
   3    -96.5428616 -0.297623E-07  0.409E-03    2.41       3.1  T
   4    -96.5428619 -0.300324E-06  0.237E-03    2.41       5.3  T
   5    -96.5428619 -0.531648E-07  0.112E-03    2.41      11.1  T
   6    -96.5428619 -0.593447E-08  0.827E-04    2.41      15.1  T
   7    -96.5428619 -0.270580E-08  0.369E-04    2.41      33.9  T
     SCC iter.                  ...        0 min,  0.326 sec
     gradient                   ...        0 min,  0.143 sec
 * total energy  :   -95.1505121 Eh     change       -0.2081925E-04 Eh
   gradient norm :     0.0016927 Eh/α   predicted    -0.1299321E-04 ( -37.59%)
   displ. norm   :     0.0937627 α      lambda       -0.1013148E-04
   maximum displ.:     0.0651196 α      in ANC's #3, #1, #2, ...

........................................................................
.............................. CYCLE   42 ..............................
........................................................................
   1    -96.5432757 -0.965433E+02  0.200E-02    2.41       0.0  T
   2    -96.5432759 -0.164521E-06  0.111E-02    2.41       1.1  T
   3    -96.5432759 -0.479797E-07  0.150E-03    2.41       8.3  T
   4    -96.5432759 -0.693628E-08  0.887E-04    2.41      14.1  T
   5    -96.5432759 -0.950814E-08  0.489E-04    2.41      25.6  T
     SCC iter.                  ...        0 min,  0.254 sec
     gradient                   ...        0 min,  0.123 sec
 * total energy  :   -95.1505241 Eh     change       -0.1191798E-04 Eh
   gradient norm :     0.0012424 Eh/α   predicted    -0.5087349E-05 ( -57.31%)
   displ. norm   :     0.2001337 α      lambda       -0.1758154E-04
   maximum displ.:     0.1431224 α      in ANC's #3, #1, #2, ...
 * RMSD in coord.:     0.5126554 α      energy gain  -0.2820994E-02 Eh

generating ANC from model Hessian ...
Using Lindh-Hessian (1995)
 Shifting diagonal of input Hessian by    9.7082703210153581E-003
 Lowest  eigenvalues of input Hessian
    0.000000    0.000000    0.000000    0.000000    0.000000    0.000000
    0.010000    0.010321    0.010575    0.010852    0.011024    0.011218
    0.011846    0.012739    0.013598    0.013671    0.014116    0.014613
 Highest eigenvalues
    1.981637    1.982595    2.141372    2.143403    2.164331    2.165542


........................................................................
.............................. CYCLE   43 ..............................
........................................................................
   1    -96.5432441 -0.965432E+02  0.417E-02    2.41       0.0  T
   2    -96.5432448 -0.709036E-06  0.232E-02    2.41       1.0  T
   3    -96.5432450 -0.212315E-06  0.311E-03    2.41       4.0  T
   4    -96.5432450 -0.322387E-07  0.182E-03    2.41       6.9  T
   5    -96.5432451 -0.378014E-07  0.101E-03    2.41      12.4  T
   6    -96.5432451 -0.528378E-08  0.726E-04    2.41      17.2  T
   7    -96.5432451 -0.431564E-08  0.198E-04    2.41      63.2  T
     SCC iter.                  ...        0 min,  0.295 sec
     gradient                   ...        0 min,  0.097 sec
 * total energy  :   -95.1505394 Eh     change       -0.1532736E-04 Eh
   gradient norm :     0.0012994 Eh/α   predicted     0.0000000E+00 (-100.00%)
   displ. norm   :     0.0234727 α      lambda       -0.1697155E-05
   maximum displ.:     0.0115135 α      in ANC's #1, #11, #26, ...

........................................................................
.............................. CYCLE   44 ..............................
........................................................................
   1    -96.5434675 -0.965435E+02  0.678E-03    2.41       0.0  T
   2    -96.5434675 -0.394834E-07  0.385E-03    2.41       3.2  T
   3    -96.5434675 -0.282014E-08  0.614E-04    2.41      20.3  T
   4    -96.5434675 -0.716393E-08  0.304E-04    2.41      41.2  T
     SCC iter.                  ...        0 min,  0.148 sec
     gradient                   ...        0 min,  0.096 sec
 * total energy  :   -95.1505462 Eh     change       -0.6821061E-05 Eh
   gradient norm :     0.0003784 Eh/α   predicted    -0.3328083E-05 ( -51.21%)
   displ. norm   :     0.0387673 α      lambda       -0.4919425E-05
   maximum displ.:     0.0217097 α      in ANC's #1, #5, #26, ...

........................................................................
.............................. CYCLE   45 ..............................
........................................................................
   1    -96.5434283 -0.965434E+02  0.939E-03    2.41       0.0  T
   2    -96.5434283 -0.622305E-07  0.530E-03    2.41       2.4  T
   3    -96.5434283 -0.884968E-08  0.791E-04    2.41      15.8  T
   4    -96.5434284 -0.112322E-07  0.399E-04    2.41      31.3  T
     SCC iter.                  ...        0 min,  0.247 sec
     gradient                   ...        0 min,  0.105 sec
 * total energy  :   -95.1505513 Eh     change       -0.5061852E-05 Eh
   gradient norm :     0.0006490 Eh/α   predicted    -0.2463698E-05 ( -51.33%)
   displ. norm   :     0.0434670 α      lambda       -0.3408940E-05
   maximum displ.:     0.0269844 α      in ANC's #1, #5, #3, ...

........................................................................
.............................. CYCLE   46 ..............................
........................................................................
   1    -96.5433443 -0.965433E+02  0.107E-02    2.41       0.0  T
   2    -96.5433444 -0.744904E-07  0.603E-03    2.41       2.1  T
   3    -96.5433444 -0.181176E-07  0.787E-04    2.41      15.9  T
   4    -96.5433444 -0.430744E-08  0.448E-04    2.41      27.9  T
     SCC iter.                  ...        0 min,  0.143 sec
     gradient                   ...        0 min,  0.083 sec
 * total energy  :   -95.1505550 Eh     change       -0.3745369E-05 Eh
   gradient norm :     0.0005733 Eh/α   predicted    -0.1706189E-05 ( -54.45%)
   displ. norm   :     0.0466975 α      lambda       -0.2945804E-05
   maximum displ.:     0.0307095 α      in ANC's #1, #5, #12, ...

   *** GEOMETRY OPTIMIZATION CONVERGED AFTER 46 ITERATIONS ***

------------------------------------------------------------------------
 total energy gain   :        -0.0247901 Eh      -15.5560 kcal/mol
 total RMSD          :         1.0094564 a0        0.5342 Å
 total power (kW/mol):        -1.4149220 (step)   -2.3840 (real)
------------------------------------------------------------------------

 ANCopt (total)                0 d,  0 h,  0 min, 27.302 sec
 optimizer setup                ...        0 min,  0.000 sec (  0.000%)
 model hessian                  ...        0 min,  0.142 sec (  0.521%)
 ANC generation                 ...        0 min,  0.027 sec (  0.100%)
 coordinate transformation      ...        0 min,  0.050 sec (  0.182%)
 single point calculation       ...        0 min, 26.655 sec ( 97.630%)
 optimization log               ...        0 min,  0.018 sec (  0.065%)
 hessian update                 ...        0 min,  0.318 sec (  1.166%)
 rational function              ...        0 min,  0.076 sec (  0.278%)

================
 final structure:
================
64
 xtb: 6.4.1 (23d549d)
C         6.68670908871880    0.97005026174579    0.24636918844148
C         6.73221816508028   -0.45619657211268    0.78902074999021
C        -5.91077727601504    2.47977723973914    1.57218376488386
C        -6.51096885939011    1.08880161580542    1.75477610920452
C         5.63747128723604    1.10044910894145   -0.85404524764509
C         5.35857622979408   -0.89500814349589    1.28763342943580
C        -4.93135141349291    2.49269729200938    0.39257457092646
C        -5.42280503998744    0.08920109209590    2.16266668257392
C        -0.32106454999619    1.11994527949851   -1.39323353171360
C         0.21811740185183   -1.52400546893264    0.97907522749207
C         1.13100177867036    0.75653796776947   -3.27859852453432
C         0.56300489763966   -3.76913691844564    0.18475609964004
C        -1.26939462112844    0.62961405331223   -3.54900107668212
C        -1.64956491421160   -3.03559510252499    0.82751379895680
C         2.10257022636743    1.11106620176097   -1.01865825867959
C         2.46077095412717   -2.18686818620474    0.17699179762151
C        -2.76971134255968    0.86193944662798   -1.59630366334021
C        -2.02856846674665   -0.67512693279884    1.49577051609989
C         0.96254086905139    1.02324379942025   -1.91835823761197
C         1.07207623068508   -2.50560711645989    0.48174269065546
C        -1.44029750552856    0.89821193861908   -2.19174397689238
C        -1.14280243819865   -1.76869225507427    1.12430582378589
C         0.01253728664434    0.58524560580170   -4.06914773252732
C        -0.78392567650691   -4.01537604587714    0.38545117476600
C         4.26877974371308    0.68116094420299   -0.32641882760592
C         4.33131626463909   -0.78915642835474    0.15820029523983
C        -4.27028547835126    1.12120160257601    0.17854370894693
C        -4.06053692744351    0.44499460318737    1.55661693837040
Br        0.23824271547677    0.23610109053663   -5.93905335055577
Br       -1.47173442533319   -5.76060810172685   -0.00198749450316
N         3.26657582372635    0.74758338750069   -1.34885257639932
N         3.02098298334350   -1.14278832234042    0.61201121732302
N        -2.98607392059322    1.28807707173230   -0.42812019900498
N        -3.28164111008832   -0.73946224201030    1.34820725790542
H         6.44419817740204    1.65898903656846    1.05881214975476
H         7.66602901513575    1.24713969809208   -0.14763541859912
H         7.06146509736564   -1.13454482977669   -0.00143291004674
H         7.45186791114791   -0.51897648184354    1.60729418681985
H        -6.70102609386220    3.21057249518632    1.39411298210828
H        -5.39757497012525    2.76569289182851    2.49150209826272
H        -7.28874254806837    1.11256280158225    2.51913136343205
H        -6.97860758865011    0.77793863841951    0.81906688515917
H         5.89525884659627    0.46755857103775   -1.70481042993441
H         5.58251251025141    2.13232159183224   -1.20653004569430
H         5.39392073162477   -1.92889911029189    1.63872164980832
H         5.03460342951192   -0.26669888765874    2.11908240187283
H        -5.44879457498063    2.76683416429608   -0.52885028531525
H        -4.14313171653277    3.22841122596741    0.56224086384676
H        -5.68815675475069   -0.91583099580612    1.83163150104582
H        -5.32068686020941    0.06574952458659    3.24896674140624
H        -0.47801762435345    1.33096146328000   -0.34806250407428
H         0.63516792986202   -0.55689630186956    1.20784158395750
H         2.12858895387914    0.68232277811233   -3.68018672522137
H         1.21035766155176   -4.54501319960763   -0.19538160220724
H        -2.12419051756654    0.45985480940065   -4.18620993187662
H        -2.70554346266636   -3.21946157056443    0.94189739226206
H         1.87022126678719    1.45529707553904   -0.00123723871142
H         2.97288714044995   -2.88779641518776   -0.49891965180511
H        -3.55856210267836    0.40354441163237   -2.21044897025646
H        -1.53016780727283    0.23539249562058    1.85553767835821
H         3.98927382713792    1.29822858127001    0.54509166525968
H         4.64899562929791   -1.42559489329966   -0.68644625986496
H        -4.91758546155754    0.46944288619756   -0.43103624558765
H        -3.51654502592440    1.16862677893047    2.18536773127612

 Bond Distances (Angstroems)
 ---------------------------
C1-C2=1.5267         C1-C5=1.5260         C1-H35=1.0925        C1-H36=1.0914        C2-C1=1.5267         C2-C6=1.5258         
C2-H37=1.0924        C2-H38=1.0915        C3-C4=1.5259         C3-C7=1.5333         C3-H39=1.0910        C3-H40=1.0910        
C4-C3=1.5259         C4-C8=1.5329         C4-H41=1.0907        C4-H42=1.0913        C5-C1=1.5260         C5-C25=1.5256        
C5-H43=1.0912        C5-H44=1.0918        C6-C2=1.5258         C6-C26=1.5304        C6-H45=1.0924        C6-H46=1.0913        
C7-C3=1.5333         C7-C27=1.5375        C7-H47=1.0918        C7-H48=1.0915        C8-C4=1.5329         C8-C28=1.5329        
C8-H49=1.0909        C8-H50=1.0913        C9-C19=1.3902        C9-C21=1.3926        C9-H51=1.0777        C10-C20=1.3929       
C10-C22=1.3903       C10-H52=1.0778       C11-C19=1.3963       C11-C23=1.3803       C11-H53=1.0779       C12-C20=1.3942       
C12-C24=1.3839       C12-H54=1.0796       C13-C21=1.3941       C13-C23=1.3841       C13-H55=1.0796       C14-C22=1.3964       
C14-C24=1.3801       C14-H56=1.0780       C15-C19=1.4549       C15-N31=1.2634       C15-H57=1.0989       C16-C20=1.4570       
C16-N32=1.2622       C16-H58=1.1002       C17-C21=1.4571       C17-N33=1.2622       C17-H59=1.0998       C18-C22=1.4555       
C18-N34=1.2634       C18-H60=1.0986       C19-C9=1.3902        C19-C11=1.3963       C19-C15=1.4549       C20-C10=1.3929       
C20-C12=1.3942       C20-C16=1.4570       C21-C9=1.3926        C21-C13=1.3941       C21-C17=1.4571       C22-C10=1.3903       
C22-C14=1.3964       C22-C18=1.4555       C23-C11=1.3803       C23-C13=1.3841       C23-Br29=1.9156      C24-C12=1.3839       
C24-C14=1.3801       C24-Br30=1.9155      C25-C5=1.5256        C25-C26=1.5494       C25-N31=1.4332       C25-H61=1.1038       
C26-C6=1.5304        C26-C25=1.5494       C26-N32=1.4311       C26-H62=1.1043       C27-C7=1.5375        C27-C28=1.5493       
C27-N33=1.4301       C27-H63=1.1024       C28-C8=1.5329        C28-C27=1.5493       C28-N34=1.4328       C28-H64=1.1022       
Br29-C23=1.9156      Br30-C24=1.9155      N31-C15=1.2634       N31-C25=1.4332       N32-C16=1.2622       N32-C26=1.4311       
N33-C17=1.2622       N33-C27=1.4301       N34-C18=1.2634       N34-C28=1.4328       H35-C1=1.0925        H36-C1=1.0914        
H37-C2=1.0924        H38-C2=1.0915        H39-C3=1.0910        H40-C3=1.0910        H41-C4=1.0907        H42-C4=1.0913        
H43-C5=1.0912        H44-C5=1.0918        H45-C6=1.0924        H46-C6=1.0913        H47-C7=1.0918        H48-C7=1.0915        
H49-C8=1.0909        H50-C8=1.0913        H51-C9=1.0777        H52-C10=1.0778       H53-C11=1.0779       H54-C12=1.0796       
H55-C13=1.0796       H56-C14=1.0780       H57-C15=1.0989       H58-C16=1.1002       H59-C17=1.0998       H60-C18=1.0986       
H61-C25=1.1038       H62-C26=1.1043       H63-C27=1.1024       H64-C28=1.1022       
 C  H  Rav=1.0915 sigma=0.0078  Rmin=1.0777  Rmax=1.1043    30
 C  C  Rav=1.4606 sigma=0.0667  Rmin=1.3801  Rmax=1.5494    28
 N  C  Rav=1.3473 sigma=0.0845  Rmin=1.2622  Rmax=1.4332     8
 Br C  Rav=1.9155 sigma=0.0000  Rmin=1.9155  Rmax=1.9156     2

 selected bond angles (degree)
 --------------------
C5-C1-C2=110.89                H35-C1-C2=109.35               H35-C1-C5=109.25               H36-C1-C2=109.80               
H36-C1-C5=109.57               H36-C1-H35=107.91              C6-C2-C1=110.98                H37-C2-C1=109.38               
H37-C2-C6=109.22               H38-C2-C1=109.87               H38-C2-C6=109.39               H38-C2-H37=107.94              
C7-C3-C4=110.55                H39-C3-C4=110.20               H39-C3-C7=109.36               H40-C3-C4=108.85               
H40-C3-C7=110.22               H40-C3-H39=107.62              C8-C4-C3=110.31                H41-C4-C3=110.15               
H41-C4-C8=109.51               H42-C4-C3=109.00               H42-C4-C8=110.28               H42-C4-H41=107.55              
C25-C5-C1=110.12               H43-C5-C1=110.50               H43-C5-C25=108.79              H44-C5-C1=110.38               
H44-C5-C25=109.04              H44-C5-H43=107.96              C26-C6-C2=110.07               H45-C6-C2=110.37               
H45-C6-C26=108.93              H46-C6-C2=110.53               H46-C6-C26=108.85              H46-C6-H45=108.04              
C27-C7-C3=111.98               H47-C7-C3=110.41               H47-C7-C27=108.08              H48-C7-C3=110.33               
H48-C7-C27=108.20              H48-C7-H47=107.71              C28-C8-C4=111.98               H49-C8-C4=110.33               
H49-C8-C28=108.06              H50-C8-C4=110.20               H50-C8-C28=108.38              H50-C8-H49=107.76              
C21-C9-C19=120.96              H51-C9-C19=120.96              H51-C9-C21=118.05              C22-C10-C20=120.89             
H52-C10-C20=118.09             H52-C10-C22=120.97             

 selected dihedral angles (degree)
 ---------------------------------
C6-C2-C1-C5=303.89            C6-C2-C1-H35= 64.44           C6-C2-C1-H36=182.66           H37-C2-C1-C5= 64.47           
H37-C2-C1-H35=185.01          H37-C2-C1-H36=303.24          H38-C2-C1-C5=182.78           H38-C2-C1-H35=303.33          
H38-C2-C1-H36= 61.55          C8-C4-C3-C7= 65.44            C8-C4-C3-H39=186.44           C8-C4-C3-H40=304.24           
H41-C4-C3-C7=186.44           H41-C4-C3-H39=307.44          H41-C4-C3-H40= 65.24          H42-C4-C3-C7=304.22           
H42-C4-C3-H39= 65.22          H42-C4-C3-H40=183.02          C25-C5-C1-C2= 57.17           C25-C5-C1-H35=296.57          
C25-C5-C1-H36=178.54          H43-C5-C1-C2=296.95           H43-C5-C1-H35=176.35          H43-C5-C1-H36= 58.32          
H44-C5-C1-C2=177.61           H44-C5-C1-H35= 57.01          H44-C5-C1-H36=298.98          C26-C6-C2-C1= 57.61           
C26-C6-C2-H37=296.94          C26-C6-C2-H38=179.00          H45-C6-C2-C1=177.88           H45-C6-C2-H37= 57.20          
H45-C6-C2-H38=299.26          H46-C6-C2-C1=297.33           H46-C6-C2-H37=176.66          H46-C6-C2-H38= 58.72          
C27-C7-C3-C4=330.90           C27-C7-C3-H39=209.40          C27-C7-C3-H40= 91.28          H47-C7-C3-C4= 91.38           
H47-C7-C3-H39=329.88          H47-C7-C3-H40=211.76          H48-C7-C3-C4=210.32           H48-C7-C3-H39= 88.82          
H48-C7-C3-H40=330.70          C28-C8-C4-C3=328.11           C28-C8-C4-H41=206.72          C28-C8-C4-H42= 88.56          
H49-C8-C4-C3=207.70           H49-C8-C4-H41= 86.32          H49-C8-C4-H42=328.16          H50-C8-C4-C3= 88.83           
H50-C8-C4-H41=327.45          H50-C8-C4-H42=209.29          
           -------------------------------------------------
          |                Final Singlepoint                |
           -------------------------------------------------

          ...................................................
          :                      SETUP                      :
          :.................................................:
          :  # basis functions                 178          :
          :  # atomic orbitals                 176          :
          :  # shells                          100          :
          :  # electrons                       176          :
          :  max. iterations                   250          :
          :  Hamiltonian                  GFN2-xTB          :
          :  restarted?                      false          :
          :  GBSA solvation                   true          :
          :  PC potential                    false          :
          :  electronic temp.          300.0000000     K    :
          :  accuracy                    1.0000000          :
          :  -> integral cutoff          0.2500000E+02      :
          :  -> integral neglect         0.1000000E-07      :
          :  -> SCF convergence          0.1000000E-05 Eh   :
          :  -> wf. convergence          0.1000000E-03 e    :
          :  Broyden damping             0.4000000          :
          ...................................................

 iter      E             dE          RMSdq      gap      omega  full diag
   1    -96.5433444 -0.965433E+02  0.198E-04    2.41       0.0  T
   2    -96.5433444 -0.211713E-09  0.153E-04    2.41      81.6  T
   3    -96.5433444 -0.805471E-10  0.121E-04    2.41     103.1  T

   *** convergence criteria satisfied after 3 iterations ***

         #    Occupation            Energy/Eh            Energy/eV
      -------------------------------------------------------------
         1        2.0000           -0.8464967             -23.0343
       ...           ...                  ...                  ...
        82        2.0000           -0.4089416             -11.1279
        83        2.0000           -0.4084683             -11.1150
        84        2.0000           -0.4077780             -11.0962
        85        2.0000           -0.3911365             -10.6434
        86        2.0000           -0.3903768             -10.6227
        87        2.0000           -0.3873408             -10.5401
        88        2.0000           -0.3871323             -10.5344 (HOMO)
        89                         -0.2984740              -8.1219 (LUMO)
        90                         -0.2915517              -7.9335
        91                         -0.2839512              -7.7267
        92                         -0.2774703              -7.5504
        93                         -0.2344179              -6.3788
       ...                                ...                  ...
       176                          0.6577537              17.8984
      -------------------------------------------------------------
                  HL-Gap            0.0886583 Eh            2.4125 eV
             Fermi-level           -0.3428032 Eh           -9.3281 eV

 SCC (total)                   0 d,  0 h,  0 min,  0.316 sec
 SCC setup                      ...        0 min,  0.018 sec (  5.724%)
 Dispersion                     ...        0 min,  0.021 sec (  6.734%)
 classical contributions        ...        0 min,  0.011 sec (  3.326%)
 integral evaluation            ...        0 min,  0.034 sec ( 10.836%)
 iterations                     ...        0 min,  0.139 sec ( 43.977%)
 molecular gradient             ...        0 min,  0.092 sec ( 29.163%)
 printout                       ...        0 min,  0.001 sec (  0.226%)

         :::::::::::::::::::::::::::::::::::::::::::::::::::::
         ::                     SUMMARY                     ::
         :::::::::::::::::::::::::::::::::::::::::::::::::::::
         :: total energy             -95.150555009855 Eh    ::
         :: total w/o Gsasa/hb       -95.115752645244 Eh    ::
         :: gradient norm              0.000573681200 Eh/a0 ::
         :: HOMO-LUMO gap              2.412515152510 eV    ::
         ::.................................................::
         :: SCC energy               -96.543344392577 Eh    ::
         :: -> isotropic ES            0.051162972228 Eh    ::
         :: -> anisotropic ES          0.002588063094 Eh    ::
         :: -> anisotropic XC          0.068297292929 Eh    ::
         :: -> dispersion             -0.080062556526 Eh    ::
         :: -> Gsolv                  -0.043642376712 Eh    ::
         ::    -> Gelec               -0.008840012101 Eh    ::
         ::    -> Gsasa               -0.038693383855 Eh    ::
         ::    -> Ghb                  0.000000000000 Eh    ::
         ::    -> Gshift               0.003891019244 Eh    ::
         :: repulsion energy           1.391441915902 Eh    ::
         :: add. restraining           0.000000000000 Eh    ::
         :: total charge               0.000000000000 e     ::
         :::::::::::::::::::::::::::::::::::::::::::::::::::::

           -------------------------------------------------
          |                Property Printout                |
           -------------------------------------------------

    * Orbital Energies and Occupations

         #    Occupation            Energy/Eh            Energy/eV
      -------------------------------------------------------------
         1        2.0000           -0.8464967             -23.0343
       ...           ...                  ...                  ...
        76        2.0000           -0.4272011             -11.6247
        77        2.0000           -0.4248180             -11.5599
        78        2.0000           -0.4207628             -11.4495
        79        2.0000           -0.4201844             -11.4338
        80        2.0000           -0.4198208             -11.4239
        81        2.0000           -0.4154005             -11.3036
        82        2.0000           -0.4089416             -11.1279
        83        2.0000           -0.4084683             -11.1150
        84        2.0000           -0.4077780             -11.0962
        85        2.0000           -0.3911365             -10.6434
        86        2.0000           -0.3903768             -10.6227
        87        2.0000           -0.3873408             -10.5401
        88        2.0000           -0.3871323             -10.5344 (HOMO)
        89                         -0.2984740              -8.1219 (LUMO)
        90                         -0.2915517              -7.9335
        91                         -0.2839512              -7.7267
        92                         -0.2774703              -7.5504
        93                         -0.2344179              -6.3788
        94                         -0.2303584              -6.2684
        95                         -0.2156957              -5.8694
        96                         -0.2155794              -5.8662
        97                         -0.1920576              -5.2262
        98                         -0.1860539              -5.0628
        99                         -0.1074860              -2.9248
       ...                                ...                  ...
       176                          0.6577537              17.8984
      -------------------------------------------------------------
                  HL-Gap            0.0886583 Eh            2.4125 eV
             Fermi-level           -0.3428032 Eh           -9.3281 eV

     #   Z          covCN         q      C6AA      α(0)
     1   6 C        3.805    -0.061    21.676     6.628
     2   6 C        3.805    -0.061    21.667     6.627
     3   6 C        3.803    -0.061    21.676     6.628
     4   6 C        3.803    -0.061    21.676     6.628
     5   6 C        3.808    -0.062    21.694     6.630
     6   6 C        3.808    -0.058    21.604     6.616
     7   6 C        3.807    -0.059    21.631     6.621
     8   6 C        3.807    -0.065    21.735     6.637
     9   6 C        2.931    -0.028    28.709     8.787
    10   6 C        2.930    -0.028    28.703     8.786
    11   6 C        2.993    -0.027    28.669     8.783
    12   6 C        2.995    -0.032    28.797     8.803
    13   6 C        2.995    -0.032    28.792     8.802
    14   6 C        2.993    -0.027    28.672     8.784
    15   6 C        2.873     0.082    26.175     8.387
    16   6 C        2.862     0.082    26.170     8.385
    17   6 C        2.860     0.081    26.182     8.387
    18   6 C        2.869     0.081    26.181     8.388
    19   6 C        2.978     0.016    27.647     8.625
    20   6 C        2.978     0.013    27.707     8.634
    21   6 C        2.978     0.014    27.706     8.634
    22   6 C        2.978     0.016    27.640     8.624
    23   6 C        2.914     0.090    25.995     8.361
    24   6 C        2.914     0.090    25.996     8.361
    25   6 C        3.839     0.060    19.552     6.290
    26   6 C        3.828     0.063    19.498     6.283
    27   6 C        3.823     0.064    19.491     6.282
    28   6 C        3.832     0.060    19.553     6.291
    29  35 Br       1.064    -0.184   190.159    22.234
    30  35 Br       1.064    -0.184   190.164    22.235
    31   7 N        1.835    -0.258    27.566     7.780
    32   7 N        1.836    -0.258    27.567     7.781
    33   7 N        1.836    -0.257    27.536     7.776
    34   7 N        1.835    -0.258    27.549     7.778
    35   1 H        0.924     0.039     2.457     2.451
    36   1 H        0.924     0.043     2.404     2.425
    37   1 H        0.924     0.040     2.453     2.449
    38   1 H        0.924     0.044     2.400     2.422
    39   1 H        0.924     0.043     2.410     2.428
    40   1 H        0.924     0.041     2.435     2.440
    41   1 H        0.924     0.043     2.416     2.430
    42   1 H        0.924     0.039     2.463     2.454
    43   1 H        0.924     0.049     2.336     2.390
    44   1 H        0.924     0.042     2.427     2.436
    45   1 H        0.924     0.037     2.489     2.467
    46   1 H        0.924     0.048     2.349     2.397
    47   1 H        0.924     0.038     2.480     2.463
    48   1 H        0.924     0.047     2.355     2.400
    49   1 H        0.924     0.052     2.297     2.370
    50   1 H        0.924     0.040     2.448     2.447
    51   1 H        0.926     0.073     2.058     2.243
    52   1 H        0.926     0.072     2.062     2.245
    53   1 H        0.926     0.084     1.938     2.177
    54   1 H        0.926     0.069     2.100     2.266
    55   1 H        0.926     0.069     2.097     2.264
    56   1 H        0.926     0.084     1.940     2.178
    57   1 H        0.923     0.015     2.813     2.623
    58   1 H        0.923     0.011     2.873     2.651
    59   1 H        0.923     0.011     2.869     2.649
    60   1 H        0.923     0.015     2.806     2.619
    61   1 H        0.923     0.019     2.752     2.594
    62   1 H        0.923     0.012     2.857     2.643
    63   1 H        0.923     0.013     2.839     2.635
    64   1 H        0.923     0.020     2.729     2.584

 Mol. C6AA /au·bohr⁶  :      54691.057722
 Mol. C8AA /au·bohr⁸  :    1501542.697545
 Mol. α(0) /au        :        364.518087


Wiberg/Mayer (AO) data.
largest (>0.10) Wiberg bond orders for each atom

 ---------------------------------------------------------------------------
     #   Z sym  total        # sym  WBO       # sym  WBO       # sym  WBO
 ---------------------------------------------------------------------------
     1   6 C    3.996 --     2 C    1.009     5 C    1.007    35 H    0.977
                            36 H    0.976
     2   6 C    3.996 --     1 C    1.009     6 C    1.007    37 H    0.977
                            38 H    0.975
     3   6 C    3.995 --     4 C    1.010     7 C    1.003    40 H    0.979
                            39 H    0.977
     4   6 C    3.996 --     3 C    1.010     8 C    1.004    42 H    0.979
                            41 H    0.977
     5   6 C    3.992 --     1 C    1.007    25 C    0.985    43 H    0.975
                            44 H    0.974
     6   6 C    3.989 --     2 C    1.007    46 H    0.975    45 H    0.975
                            26 C    0.970
     7   6 C    3.989 --     3 C    1.003    47 H    0.978    48 H    0.977
                            27 C    0.967
     8   6 C    3.991 --     4 C    1.004    28 C    0.982    50 H    0.979
                            49 H    0.976
     9   6 C    3.984 --    19 C    1.396    21 C    1.377    51 H    0.960
    10   6 C    3.984 --    22 C    1.396    20 C    1.377    52 H    0.961
    11   6 C    3.981 --    23 C    1.430    19 C    1.355    53 H    0.962
    12   6 C    3.978 --    24 C    1.412    20 C    1.373    54 H    0.964
    13   6 C    3.978 --    23 C    1.412    21 C    1.373    55 H    0.964
    14   6 C    3.981 --    24 C    1.430    22 C    1.355    56 H    0.962
    15   6 C    3.967 --    31 N    1.838    19 C    1.079    57 H    0.936
    16   6 C    3.966 --    32 N    1.843    20 C    1.078    58 H    0.937
    17   6 C    3.966 --    33 N    1.841    21 C    1.078    59 H    0.937
    18   6 C    3.968 --    34 N    1.838    22 C    1.078    60 H    0.936
    19   6 C    3.989 --     9 C    1.396    11 C    1.355    15 C    1.079
    20   6 C    3.988 --    10 C    1.377    12 C    1.373    16 C    1.078
    21   6 C    3.988 --     9 C    1.377    13 C    1.373    17 C    1.078
    22   6 C    3.989 --    10 C    1.396    14 C    1.355    18 C    1.078
    23   6 C    3.935 --    11 C    1.430    13 C    1.412    29 Br   0.969
    24   6 C    3.935 --    14 C    1.430    12 C    1.412    30 Br   0.969
    25   6 C    3.976 --    31 N    1.022     5 C    0.985    61 H    0.951
                            26 C    0.925
    26   6 C    3.977 --    32 N    1.025     6 C    0.970    62 H    0.954
                            25 C    0.925
    27   6 C    3.977 --    33 N    1.026     7 C    0.967    63 H    0.956
                            28 C    0.924
    28   6 C    3.976 --    34 N    1.023     8 C    0.982    64 H    0.953
                            27 C    0.924
    29  35 Br   1.093 --    23 C    0.969
    30  35 Br   1.093 --    24 C    0.969
    31   7 N    3.068 --    15 C    1.838    25 C    1.022
    32   7 N    3.076 --    16 C    1.843    26 C    1.025
    33   7 N    3.078 --    17 C    1.841    27 C    1.026
    34   7 N    3.068 --    18 C    1.838    28 C    1.023
    35   1 H    0.998 --     1 C    0.977
    36   1 H    0.997 --     1 C    0.976
    37   1 H    0.998 --     2 C    0.977
    38   1 H    0.996 --     2 C    0.975
    39   1 H    0.996 --     3 C    0.977
    40   1 H    0.998 --     3 C    0.979
    41   1 H    0.997 --     4 C    0.977
    42   1 H    0.998 --     4 C    0.979
    43   1 H    0.998 --     5 C    0.975
    44   1 H    0.996 --     5 C    0.974
    45   1 H    0.998 --     6 C    0.975
    46   1 H    0.998 --     6 C    0.975
    47   1 H    0.998 --     7 C    0.978
    48   1 H    0.998 --     7 C    0.977
    49   1 H    0.997 --     8 C    0.976
    50   1 H    0.997 --     8 C    0.979
    51   1 H    0.994 --     9 C    0.960
    52   1 H    0.994 --    10 C    0.961
    53   1 H    0.993 --    11 C    0.962
    54   1 H    0.995 --    12 C    0.964
    55   1 H    0.995 --    13 C    0.964
    56   1 H    0.993 --    14 C    0.962
    57   1 H    0.999 --    15 C    0.936
    58   1 H    0.999 --    16 C    0.937
    59   1 H    0.999 --    17 C    0.937
    60   1 H    0.999 --    18 C    0.936
    61   1 H    0.999 --    25 C    0.951
    62   1 H    1.000 --    26 C    0.954
    63   1 H    1.000 --    27 C    0.956
    64   1 H    0.999 --    28 C    0.953
 ---------------------------------------------------------------------------

Topologies differ in total number of bonds
Writing topology from bond orders to xtbtopo.mol

molecular dipole:
                 x           y           z       tot (Debye)
 q only:        0.263       1.184       1.264
   full:        0.339       1.596       1.698       5.986
molecular quadrupole (traceless):
                xx          xy          yy          xz          yz          zz
 q only:       32.749     -11.164     -14.901       0.592       0.781     -17.848
  q+dip:       41.947     -18.980     -19.069       5.112       4.575     -22.878
   full:       38.286     -19.230     -16.558       5.713       0.468     -21.728

           -------------------------------------------------
          |                Geometry Summary                 |
           -------------------------------------------------

      molecular mass/u    :      582.3726961
   center of mass at/Å    :       -0.1850702      -0.8237159      -0.8846686
  moments of inertia/u·Å² :        0.6615315E+04   0.8838203E+04   0.1041279E+05
rotational constants/cm⁻¹ :        0.2548274E-02   0.1907360E-02   0.1618936E-02

 * 59 selected distances

     #   Z          #   Z                                           value/Å
     1   6 C        2   6 C                                       1.5266702
     3   6 C        4   6 C                                       1.5259040
     1   6 C        5   6 C                                       1.5260458
     2   6 C        6   6 C                                       1.5257989
     3   6 C        7   6 C                                       1.5332709
     4   6 C        8   6 C                                       1.5328654
     9   6 C       19   6 C                                       1.3902338
    11   6 C       19   6 C                                       1.3963398
    10   6 C       20   6 C                                       1.3928845
    12   6 C       20   6 C                                       1.3942246
     9   6 C       21   6 C                                       1.3926475
    13   6 C       21   6 C                                       1.3940945
    10   6 C       22   6 C                                       1.3903476
    14   6 C       22   6 C                                       1.3964013
    11   6 C       23   6 C                                       1.3803159
    13   6 C       23   6 C                                       1.3841497
    12   6 C       24   6 C                                       1.3838837
    14   6 C       24   6 C                                       1.3801164
     5   6 C       25   6 C                                       1.5256175
     6   6 C       26   6 C                                       1.5303878
     7   6 C       27   6 C                                       1.5374712
     8   6 C       28   6 C                                       1.5328600
    23   6 C       29  35 Br                                      1.9155657 (max)
    24   6 C       30  35 Br                                      1.9154698
    15   6 C       31   7 N                                       1.2633515
    16   6 C       32   7 N                                       1.2622132
    17   6 C       33   7 N                                       1.2621643
    27   6 C       33   7 N                                       1.4300657
    18   6 C       34   7 N                                       1.2633705
     1   6 C       35   1 H                                       1.0924796
     1   6 C       36   1 H                                       1.0913687
     2   6 C       37   1 H                                       1.0924179
     2   6 C       38   1 H                                       1.0915166
     3   6 C       39   1 H                                       1.0909923
     3   6 C       40   1 H                                       1.0909952
     4   6 C       41   1 H                                       1.0907500
     4   6 C       42   1 H                                       1.0912715
     5   6 C       43   1 H                                       1.0912407
     5   6 C       44   1 H                                       1.0917998
     6   6 C       45   1 H                                       1.0924480
     6   6 C       46   1 H                                       1.0913470
     7   6 C       47   1 H                                       1.0917519
     7   6 C       48   1 H                                       1.0914907
     8   6 C       49   1 H                                       1.0909103
     8   6 C       50   1 H                                       1.0913413
     9   6 C       51   1 H                                       1.0777498 (min)
    10   6 C       52   1 H                                       1.0777594
    11   6 C       53   1 H                                       1.0779430
    12   6 C       54   1 H                                       1.0796084
    13   6 C       55   1 H                                       1.0795968
    14   6 C       56   1 H                                       1.0779523
    15   6 C       57   1 H                                       1.0989206
    16   6 C       58   1 H                                       1.1001907
    17   6 C       59   1 H                                       1.0998118
    18   6 C       60   1 H                                       1.0985815
    25   6 C       61   1 H                                       1.1038236
    26   6 C       62   1 H                                       1.1042653
    27   6 C       63   1 H                                       1.1024402
    28   6 C       64   1 H                                       1.1022242

 * 4 distinct bonds (by element types)

   Z      Z             #   av. dist./Å        max./Å        min./Å
   1 H    6 C          30     1.0914996     1.1042653     1.0777498
   6 C    6 C          22     1.4532969     1.5374712     1.3801164
   6 C    7 N           5     1.2962330     1.4300657     1.2621643
   6 C   35 Br          2     1.9155177     1.9155657     1.9154698


optimized geometry written to: xtbopt.xyz


           -------------------------------------------------
          | TOTAL ENERGY              -95.150555009855 Eh   |
          | GRADIENT NORM               0.000573681200 Eh/α |
          | HOMO-LUMO GAP               2.412515152510 eV   |
           -------------------------------------------------

------------------------------------------------------------------------
 * finished run on 2022/04/01 at 14:28:49.819     
------------------------------------------------------------------------
 total:
 * wall-time:     0 d,  0 h,  0 min, 28.424 sec
 *  cpu-time:     0 d,  0 h, 16 min, 57.205 sec
 * ratio c/w:    35.786 speedup
 SCF:
 * wall-time:     0 d,  0 h,  0 min,  0.734 sec
 *  cpu-time:     0 d,  0 h,  0 min, 26.409 sec
 * ratio c/w:    35.984 speedup
 ANC optimizer:
 * wall-time:     0 d,  0 h,  0 min, 27.620 sec
 *  cpu-time:     0 d,  0 h, 16 min, 28.269 sec
 * ratio c/w:    35.781 speedup

