      -----------------------------------------------------------      
     |                   =====================                   |     
     |                           x T B                           |     
     |                   =====================                   |     
     |                         S. Grimme                         |     
     |          Mulliken Center for Theoretical Chemistry        |     
     |                    University of Bonn                     |     
      -----------------------------------------------------------      

   * xtb version 6.4.1 (23d549d) compiled by 'conda@3c73975816cd' on 2022-01-07

   xtb is free software: you can redistribute it and/or modify it under
   the terms of the GNU Lesser General Public License as published by
   the Free Software Foundation, either version 3 of the License, or
   (at your option) any later version.
   
   xtb is distributed in the hope that it will be useful,
   but WITHOUT ANY WARRANTY; without even the implied warranty of
   MERCHANTABILITY or FITNESS FOR A PARTICULAR PURPOSE.  See the
   GNU Lesser General Public License for more details.
   
   Cite this work as:
   * C. Bannwarth, E. Caldeweyher, S. Ehlert, A. Hansen, P. Pracht,
     J. Seibert, S. Spicher, S. Grimme, WIREs Comput. Mol. Sci., 2020, 11,
     e01493. DOI: 10.1002/wcms.1493
   
   for GFN2-xTB:
   * C. Bannwarth, S. Ehlert and S. Grimme., J. Chem. Theory Comput., 2019,
     15, 1652-1671. DOI: 10.1021/acs.jctc.8b01176
   for GFN1-xTB:
   * S. Grimme, C. Bannwarth, P. Shushkov, J. Chem. Theory Comput., 2017,
     13, 1989-2009. DOI: 10.1021/acs.jctc.7b00118
   for GFN0-xTB:
   * P. Pracht, E. Caldeweyher, S. Ehlert, S. Grimme, ChemRxiv, 2019, preprint.
     DOI: 10.26434/chemrxiv.8326202.v1
   for GFN-FF:
   * S. Spicher and S. Grimme, Angew. Chem. Int. Ed., 2020, 59, 15665-15673.
     DOI: 10.1002/anie.202004239
   
   for DFT-D4:
   * E. Caldeweyher, C. Bannwarth and S. Grimme, J. Chem. Phys., 2017,
     147, 034112. DOI: 10.1063/1.4993215
   * E. Caldeweyher, S. Ehlert, A. Hansen, H. Neugebauer, S. Spicher,
     C. Bannwarth and S. Grimme, J. Chem. Phys., 2019, 150, 154122.
     DOI: 10.1063/1.5090222
   * E. Caldeweyher, J.-M. Mewes, S. Ehlert and S. Grimme, Phys. Chem. Chem. Phys.
     2020, 22, 8499-8512. DOI: 10.1039/D0CP00502A
   
   for sTDA-xTB:
   * S. Grimme and C. Bannwarth, J. Chem. Phys., 2016, 145, 054103.
     DOI: 10.1063/1.4959605
   
   in the mass-spec context:
   * V. Asgeirsson, C. Bauer and S. Grimme, Chem. Sci., 2017, 8, 4879.
     DOI: 10.1039/c7sc00601b
   * J. Koopman and S. Grimme, ACS Omega 2019, 4, 12, 15120-15133.
     DOI: 10.1021/acsomega.9b02011
   
   for metadynamics refer to:
   * S. Grimme, J. Chem. Theory Comput., 2019, 155, 2847-2862
     DOI: 10.1021/acs.jctc.9b00143
   
   for SPH calculations refer to:
   * S. Spicher and S. Grimme, J. Chem. Theory Comput., 2021, 17, 1701-1714
     DOI: 10.1021/acs.jctc.0c01306
   
   with help from (in alphabetical order)
   P. Atkinson, C. Bannwarth, F. Bohle, G. Brandenburg, E. Caldeweyher
   M. Checinski, S. Dohm, S. Ehlert, S. Ehrlich, I. Gerasimov, J. Koopman
   C. Lavigne, S. Lehtola, F. März, M. Müller, F. Musil, H. Neugebauer
   J. Pisarek, C. Plett, P. Pracht, J. Seibert, P. Shushkov, S. Spicher
   M. Stahn, M. Steiner, T. Strunk, J. Stückrath, T. Rose, and J. Unsleber
   
 * started run on 2022/04/01 at 14:31:26.632     

           -------------------------------------------------
          |                Calculation Setup                |
           -------------------------------------------------

          program call               : xtb HPVISMWRRURKMP-FQUPQTDFSA-N_ETKDG_MMFF.xyz --opt --gfn 2 --alpb chcl3 --cycles 10000
          coordinate file            : HPVISMWRRURKMP-FQUPQTDFSA-N_ETKDG_MMFF.xyz
          omp threads                :                    36
          number of atoms            :                    96
          number of electrons        :                   264
          charge                     :                     0
          spin                       :                   0.0
          first test random number   :      0.58745194626339

   ID    Z sym.   atoms
    1    6 C      1-42
    2   35 Br     43-45
    3    7 N      46-51
    4    1 H      52-96

           -------------------------------------------------
          |                 G F N 2 - x T B                 |
           -------------------------------------------------

        Reference                      10.1021/acs.jctc.8b01176
      * Hamiltonian:
        H0-scaling (s, p, d)           1.850000    2.230000    2.230000
        zeta-weighting                 0.500000
      * Dispersion:
        s8                             2.700000
        a1                             0.520000
        a2                             5.000000
        s9                             5.000000
      * Repulsion:
        kExp                           1.500000    1.000000
        rExp                           1.000000
      * Coulomb:
        alpha                          2.000000
        third order                    shell-resolved
        anisotropic                    true
        a3                             3.000000
        a5                             4.000000
        cn-shift                       1.200000
        cn-exp                         4.000000
        max-rad                        5.000000

      * Solvation model:               ALPB
        Solvent                        chcl3
        Parameter file                 internal GFN2-xTB/ALPB
        Dielectric constant                4.8100E+00
        Reference state                gsolv [1 M gas/solution]
        Free energy shift                  3.8910E-03 Eh       2.4417E+00 kcal/mol
        Temperature                        2.9815E+02 K
        Density                            1.4900E+00 kg/L
        Solvent mass                       1.1938E+02 g/mol
        Interaction kernel             P16
        Born radius scaling (c1)           1.3274E+00
        Born radii integrator          GBOBC
        Born offset                        0.0000E+00 a0       0.0000E+00 AA
        H-bond correction              false
        Ion screening                  false
        Surface tension                    1.0000E-05 Eh       1.5569E+01 dyn/cm
        Grid points                               230 per atom

          ...................................................
          :                      SETUP                      :
          :.................................................:
          :  # basis functions                 267          :
          :  # atomic orbitals                 264          :
          :  # shells                          150          :
          :  # electrons                       264          :
          :  max. iterations                   250          :
          :  Hamiltonian                  GFN2-xTB          :
          :  restarted?                      false          :
          :  GBSA solvation                   true          :
          :  PC potential                    false          :
          :  electronic temp.          300.0000000     K    :
          :  accuracy                    1.0000000          :
          :  -> integral cutoff          0.2500000E+02      :
          :  -> integral neglect         0.1000000E-07      :
          :  -> SCF convergence          0.1000000E-05 Eh   :
          :  -> wf. convergence          0.1000000E-03 e    :
          :  Broyden damping             0.4000000          :
          ...................................................

 iter      E             dE          RMSdq      gap      omega  full diag
   1   -144.5437374 -0.144544E+03  0.385E+00    2.69       0.0  T
   2   -144.6407064 -0.969690E-01  0.236E+00    2.42       1.0  T
   3   -144.6173465  0.233598E-01  0.875E-01    2.17       1.0  T
   4   -144.6580776 -0.407311E-01  0.360E-01    2.12       1.0  T
   5   -144.6603595 -0.228194E-02  0.192E-01    2.09       1.0  T
   6   -144.6607037 -0.344199E-03  0.124E-01    2.11       1.0  T
   7   -144.6609316 -0.227894E-03  0.872E-02    2.10       1.0  T
   8   -144.6610449 -0.113245E-03  0.502E-02    2.10       1.0  T
   9   -144.6610921 -0.472353E-04  0.189E-02    2.10       1.0  T
  10   -144.6611012 -0.908535E-05  0.773E-03    2.10       1.3  T
  11   -144.6611021 -0.940819E-06  0.435E-03    2.10       2.3  T
  12   -144.6611026 -0.445282E-06  0.140E-03    2.10       7.3  T
  13   -144.6611026 -0.274810E-07  0.101E-03    2.10      10.1  T
  14   -144.6611026 -0.106785E-07  0.449E-04    2.10      22.7  T
  15   -144.6611026 -0.412504E-08  0.252E-04    2.10      40.5  T

   *** convergence criteria satisfied after 15 iterations ***

         #    Occupation            Energy/Eh            Energy/eV
      -------------------------------------------------------------
         1        2.0000           -0.8520167             -23.1846
       ...           ...                  ...                  ...
       126        2.0000           -0.4069579             -11.0739
       127        2.0000           -0.3962634             -10.7829
       128        2.0000           -0.3922882             -10.6747
       129        2.0000           -0.3916960             -10.6586
       130        2.0000           -0.3902215             -10.6185
       131        2.0000           -0.3806219             -10.3572
       132        2.0000           -0.3776841             -10.2773 (HOMO)
       133                         -0.3005741              -8.1790 (LUMO)
       134                         -0.2977212              -8.1014
       135                         -0.2949312              -8.0255
       136                         -0.2869889              -7.8094
       137                         -0.2850093              -7.7555
       ...                                ...                  ...
       264                          0.6215657              16.9137
      -------------------------------------------------------------
                  HL-Gap            0.0771100 Eh            2.0983 eV
             Fermi-level           -0.3391291 Eh           -9.2282 eV

 SCC (total)                   0 d,  0 h,  0 min,  0.958 sec
 SCC setup                      ...        0 min,  0.021 sec (  2.198%)
 Dispersion                     ...        0 min,  0.014 sec (  1.471%)
 classical contributions        ...        0 min,  0.008 sec (  0.863%)
 integral evaluation            ...        0 min,  0.039 sec (  4.083%)
 iterations                     ...        0 min,  0.765 sec ( 79.882%)
 molecular gradient             ...        0 min,  0.109 sec ( 11.418%)
 printout                       ...        0 min,  0.001 sec (  0.080%)

         :::::::::::::::::::::::::::::::::::::::::::::::::::::
         ::                     SUMMARY                     ::
         :::::::::::::::::::::::::::::::::::::::::::::::::::::
         :: total energy            -142.704666360254 Eh    ::
         :: total w/o Gsasa/hb      -142.650105739905 Eh    ::
         :: gradient norm              0.129701225558 Eh/a0 ::
         :: HOMO-LUMO gap              2.098271009459 eV    ::
         ::.................................................::
         :: SCC energy              -144.661102633730 Eh    ::
         :: -> isotropic ES            0.074841405299 Eh    ::
         :: -> anisotropic ES          0.009361577782 Eh    ::
         :: -> anisotropic XC          0.104283419845 Eh    ::
         :: -> dispersion             -0.119956767238 Eh    ::
         :: -> Gsolv                  -0.067666091918 Eh    ::
         ::    -> Gelec               -0.013105471569 Eh    ::
         ::    -> Gsasa               -0.058451639593 Eh    ::
         ::    -> Ghb                  0.000000000000 Eh    ::
         ::    -> Gshift               0.003891019244 Eh    ::
         :: repulsion energy           1.953932314720 Eh    ::
         :: add. restraining           0.000000000000 Eh    ::
         :: total charge              -0.000000000000 e     ::
         :::::::::::::::::::::::::::::::::::::::::::::::::::::

      ----------------------------------------------------------- 
     |                   =====================                   |
     |                        A N C O P T                        |
     |                   =====================                   |
     |               Approximate Normal Coordinate               |
     |                Rational Function Optimizer                |
      ----------------------------------------------------------- 

          ...................................................
          :                      SETUP                      :
          :.................................................:
          :   optimization level            normal          :
          :   max. optcycles                 10000          :
          :   ANC micro-cycles                  20          :
          :   degrees of freedom               282          :
          :.................................................:
          :   RF solver                   davidson          :
          :   write xtbopt.log                true          :
          :   linear?                        false          :
          :   energy convergence         0.5000000E-05 Eh   :
          :   grad. convergence          0.1000000E-02 Eh/α :
          :   maximium RF displ.         1.0000000          :
          :   Hlow (freq-cutoff)         0.1000000E-01      :
          :   Hmax (freq-cutoff)         5.0000000          :
          :   S6 in model hess.         20.0000000          :
          ...................................................

generating ANC from model Hessian ...
Using Lindh-Hessian (1995)
 Shifting diagonal of input Hessian by    9.8752074120022314E-003
 Lowest  eigenvalues of input Hessian
    0.000000    0.000000    0.000000    0.000000    0.000000    0.000000
    0.010000    0.010018    0.010061    0.010149    0.010288    0.010378
    0.010546    0.010675    0.010792    0.010955    0.011128    0.011444
 Highest eigenvalues
    1.999263    2.000138    2.012659    2.027099    2.028166    2.043406


........................................................................
.............................. CYCLE    1 ..............................
........................................................................
   1   -144.6611026 -0.144661E+03  0.128E-04    2.10       0.0  T
   2   -144.6611026 -0.238003E-09  0.957E-05    2.10     106.7  T
   3   -144.6611026 -0.169734E-09  0.735E-05    2.10     138.8  T
     SCC iter.                  ...        0 min,  0.165 sec
     gradient                   ...        0 min,  0.108 sec
 * total energy  :  -142.7046664 Eh     change       -0.7793517E-09 Eh
   gradient norm :     0.1297016 Eh/α   predicted     0.0000000E+00 (-100.00%)
   displ. norm   :     0.3396801 α      lambda       -0.2414710E-01
   maximum displ.:     0.0885850 α      in ANC's #63, #48, #65, ...

........................................................................
.............................. CYCLE    2 ..............................
........................................................................
   1   -144.7547521 -0.144755E+03  0.183E-01    2.08       0.0  T
   2   -144.7548244 -0.722715E-04  0.107E-01    2.09       1.0  T
   3   -144.7547945  0.298845E-04  0.293E-02    2.09       1.0  T
   4   -144.7548402 -0.456971E-04  0.101E-02    2.09       1.0  T
   5   -144.7548421 -0.190152E-05  0.556E-03    2.09       1.8  T
   6   -144.7548425 -0.388505E-06  0.373E-03    2.09       2.7  T
   7   -144.7548426 -0.141006E-06  0.223E-03    2.09       4.6  T
   8   -144.7548427 -0.838201E-07  0.140E-03    2.09       7.3  T
   9   -144.7548427 -0.350775E-07  0.491E-04    2.09      20.8  T
  10   -144.7548427 -0.574073E-08  0.220E-04    2.09      46.4  T
     SCC iter.                  ...        0 min,  0.522 sec
     gradient                   ...        0 min,  0.115 sec
 * total energy  :  -142.7212511 Eh     change       -0.1658477E-01 Eh
   gradient norm :     0.0525284 Eh/α   predicted    -0.1347435E-01 ( -18.75%)
   displ. norm   :     0.3483002 α      lambda       -0.7904232E-02
   maximum displ.:     0.0884244 α      in ANC's #48, #38, #28, ...

........................................................................
.............................. CYCLE    3 ..............................
........................................................................
   1   -144.8065198 -0.144807E+03  0.122E-01    2.05       0.0  T
   2   -144.8065911 -0.713165E-04  0.739E-02    2.06       1.0  T
   3   -144.8065610  0.300730E-04  0.312E-02    2.06       1.0  T
   4   -144.8066101 -0.490820E-04  0.907E-03    2.06       1.1  T
   5   -144.8066115 -0.141103E-05  0.502E-03    2.06       2.0  T
   6   -144.8066118 -0.315231E-06  0.345E-03    2.06       3.0  T
   7   -144.8066119 -0.950528E-07  0.230E-03    2.06       4.4  T
   8   -144.8066120 -0.114857E-06  0.121E-03    2.06       8.4  T
   9   -144.8066121 -0.233969E-07  0.412E-04    2.06      24.8  T
  10   -144.8066121 -0.455989E-08  0.200E-04    2.06      51.0  T
     SCC iter.                  ...        0 min,  0.457 sec
     gradient                   ...        0 min,  0.086 sec
 * total energy  :  -142.7261433 Eh     change       -0.4892199E-02 Eh
   gradient norm :     0.0169876 Eh/α   predicted    -0.4437108E-02 (  -9.30%)
   displ. norm   :     0.2869485 α      lambda       -0.1712425E-02
   maximum displ.:     0.0831390 α      in ANC's #38, #28, #13, ...

........................................................................
.............................. CYCLE    4 ..............................
........................................................................
   1   -144.8138590 -0.144814E+03  0.851E-02    2.05       0.0  T
   2   -144.8138798 -0.207858E-04  0.489E-02    2.05       1.0  T
   3   -144.8138652  0.145834E-04  0.189E-02    2.05       1.0  T
   4   -144.8138878 -0.225757E-04  0.453E-03    2.05       2.3  T
   5   -144.8138880 -0.190384E-06  0.216E-03    2.05       4.7  T
   6   -144.8138881 -0.794647E-07  0.124E-03    2.05       8.3  T
   7   -144.8138881 -0.121481E-07  0.952E-04    2.05      10.7  T
   8   -144.8138881 -0.141607E-07  0.562E-04    2.05      18.1  T
     SCC iter.                  ...        0 min,  0.583 sec
     gradient                   ...        0 min,  0.162 sec
 * total energy  :  -142.7273405 Eh     change       -0.1197181E-02 Eh
   gradient norm :     0.0090862 Eh/α   predicted    -0.9267826E-03 ( -22.59%)
   displ. norm   :     0.3287783 α      lambda       -0.9869637E-03
   maximum displ.:     0.1213572 α      in ANC's #13, #38, #28, ...

........................................................................
.............................. CYCLE    5 ..............................
........................................................................
   1   -144.8138064 -0.144814E+03  0.916E-02    2.05       0.0  T
   2   -144.8138202 -0.138774E-04  0.518E-02    2.06       1.0  T
   3   -144.8138102  0.100304E-04  0.153E-02    2.05       1.0  T
   4   -144.8138259 -0.156696E-04  0.381E-03    2.06       2.7  T
   5   -144.8138260 -0.786737E-07  0.122E-03    2.06       8.4  T
   6   -144.8138260 -0.506345E-07  0.574E-04    2.06      17.8  T
   7   -144.8138260 -0.316277E-08  0.428E-04    2.06      23.8  T
     SCC iter.                  ...        0 min,  0.534 sec
     gradient                   ...        0 min,  0.154 sec
 * total energy  :  -142.7280396 Eh     change       -0.6990657E-03 Eh
   gradient norm :     0.0083572 Eh/α   predicted    -0.5468291E-03 ( -21.78%)
   displ. norm   :     0.3518438 α      lambda       -0.6703890E-03
   maximum displ.:     0.1518148 α      in ANC's #13, #14, #5, ...

........................................................................
.............................. CYCLE    6 ..............................
........................................................................
   1   -144.8120386 -0.144812E+03  0.875E-02    2.06       0.0  T
   2   -144.8120489 -0.102789E-04  0.489E-02    2.07       1.0  T
   3   -144.8120470  0.191209E-05  0.977E-03    2.06       1.0  T
   4   -144.8120524 -0.544874E-05  0.369E-03    2.07       2.8  T
   5   -144.8120526 -0.137568E-06  0.931E-04    2.07      11.0  T
   6   -144.8120526 -0.218282E-07  0.593E-04    2.07      17.2  T
     SCC iter.                  ...        0 min,  0.523 sec
     gradient                   ...        0 min,  0.096 sec
 * total energy  :  -142.7285370 Eh     change       -0.4973844E-03 Eh
   gradient norm :     0.0086224 Eh/α   predicted    -0.3767098E-03 ( -24.26%)
   displ. norm   :     0.3903580 α      lambda       -0.5786231E-03
   maximum displ.:     0.1835668 α      in ANC's #13, #5, #8, ...

........................................................................
.............................. CYCLE    7 ..............................
........................................................................
   1   -144.8121486 -0.144812E+03  0.861E-02    2.08       0.0  T
   2   -144.8121585 -0.990521E-05  0.478E-02    2.08       1.0  T
   3   -144.8121597 -0.116430E-05  0.719E-03    2.08       1.4  T
   4   -144.8121614 -0.176283E-05  0.382E-03    2.08       2.7  T
   5   -144.8121617 -0.229444E-06  0.135E-03    2.08       7.6  T
   6   -144.8121617 -0.326788E-07  0.953E-04    2.08      10.7  T
   7   -144.8121617 -0.724256E-08  0.680E-04    2.08      15.0  T
     SCC iter.                  ...        0 min,  0.701 sec
     gradient                   ...        0 min,  0.122 sec
 * total energy  :  -142.7289655 Eh     change       -0.4285657E-03 Eh
   gradient norm :     0.0073190 Eh/α   predicted    -0.3334025E-03 ( -22.21%)
   displ. norm   :     0.3800653 α      lambda       -0.4378223E-03
   maximum displ.:     0.1823190 α      in ANC's #13, #5, #8, ...

........................................................................
.............................. CYCLE    8 ..............................
........................................................................
   1   -144.8142103 -0.144814E+03  0.806E-02    2.09       0.0  T
   2   -144.8142189 -0.854016E-05  0.447E-02    2.09       1.0  T
   3   -144.8142204 -0.147509E-05  0.618E-03    2.09       1.7  T
   4   -144.8142213 -0.976822E-06  0.347E-03    2.09       2.9  T
   5   -144.8142216 -0.234825E-06  0.126E-03    2.09       8.1  T
   6   -144.8142216 -0.232999E-07  0.918E-04    2.09      11.1  T
   7   -144.8142216 -0.689462E-08  0.632E-04    2.09      16.1  T
     SCC iter.                  ...        0 min,  0.372 sec
     gradient                   ...        0 min,  0.102 sec
 * total energy  :  -142.7292986 Eh     change       -0.3330861E-03 Eh
   gradient norm :     0.0053128 Eh/α   predicted    -0.2505340E-03 ( -24.78%)
   displ. norm   :     0.4045225 α      lambda       -0.3740500E-03
   maximum displ.:     0.1854043 α      in ANC's #13, #5, #8, ...

........................................................................
.............................. CYCLE    9 ..............................
........................................................................
   1   -144.8167343 -0.144817E+03  0.828E-02    2.09       0.0  T
   2   -144.8167431 -0.876641E-05  0.459E-02    2.09       1.0  T
   3   -144.8167445 -0.141956E-05  0.651E-03    2.09       1.6  T
   4   -144.8167458 -0.125435E-05  0.347E-03    2.09       2.9  T
   5   -144.8167460 -0.199288E-06  0.115E-03    2.09       8.9  T
   6   -144.8167460 -0.224915E-07  0.853E-04    2.09      12.0  T
   7   -144.8167460 -0.578626E-08  0.578E-04    2.09      17.7  T
     SCC iter.                  ...        0 min,  0.369 sec
     gradient                   ...        0 min,  0.092 sec
 * total energy  :  -142.7295872 Eh     change       -0.2886238E-03 Eh
   gradient norm :     0.0043510 Eh/α   predicted    -0.2176302E-03 ( -24.60%)
   displ. norm   :     0.4513815 α      lambda       -0.3432411E-03
   maximum displ.:     0.1905592 α      in ANC's #13, #5, #8, ...

........................................................................
.............................. CYCLE   10 ..............................
........................................................................
   1   -144.8177947 -0.144818E+03  0.922E-02    2.09       0.0  T
   2   -144.8178056 -0.108988E-04  0.515E-02    2.09       1.0  T
   3   -144.8178077 -0.211536E-05  0.680E-03    2.09       1.5  T
   4   -144.8178087 -0.100456E-05  0.371E-03    2.09       2.8  T
   5   -144.8178090 -0.306901E-06  0.117E-03    2.09       8.8  T
   6   -144.8178090 -0.250636E-07  0.819E-04    2.09      12.5  T
   7   -144.8178090 -0.570398E-08  0.569E-04    2.09      17.9  T
     SCC iter.                  ...        0 min,  0.362 sec
     gradient                   ...        0 min,  0.159 sec
 * total energy  :  -142.7298375 Eh     change       -0.2503055E-03 Eh
   gradient norm :     0.0043570 Eh/α   predicted    -0.2065876E-03 ( -17.47%)
   displ. norm   :     0.4071797 α      lambda       -0.2754191E-03
   maximum displ.:     0.1801754 α      in ANC's #5, #8, #13, ...

........................................................................
.............................. CYCLE   11 ..............................
........................................................................
   1   -144.8182895 -0.144818E+03  0.756E-02    2.09       0.0  T
   2   -144.8182971 -0.755675E-05  0.423E-02    2.09       1.0  T
   3   -144.8182979 -0.832640E-06  0.642E-03    2.09       1.6  T
   4   -144.8182995 -0.156134E-05  0.305E-03    2.09       3.3  T
   5   -144.8182996 -0.121365E-06  0.995E-04    2.09      10.3  T
   6   -144.8182996 -0.196105E-07  0.696E-04    2.09      14.7  T
     SCC iter.                  ...        0 min,  0.406 sec
     gradient                   ...        0 min,  0.160 sec
 * total energy  :  -142.7300186 Eh     change       -0.1810521E-03 Eh
   gradient norm :     0.0052174 Eh/α   predicted    -0.1605750E-03 ( -11.31%)
   displ. norm   :     0.3280147 α      lambda       -0.1875437E-03
   maximum displ.:     0.1548419 α      in ANC's #5, #8, #6, ...

........................................................................
.............................. CYCLE   12 ..............................
........................................................................
   1   -144.8175791 -0.144818E+03  0.605E-02    2.08       0.0  T
   2   -144.8175841 -0.496817E-05  0.340E-02    2.09       1.0  T
   3   -144.8175843 -0.215475E-06  0.555E-03    2.09       1.8  T
   4   -144.8175857 -0.133055E-05  0.261E-03    2.09       3.9  T
   5   -144.8175858 -0.954348E-07  0.858E-04    2.09      11.9  T
   6   -144.8175858 -0.119007E-07  0.603E-04    2.09      16.9  T
     SCC iter.                  ...        0 min,  0.460 sec
     gradient                   ...        0 min,  0.149 sec
 * total energy  :  -142.7301538 Eh     change       -0.1351780E-03 Eh
   gradient norm :     0.0038096 Eh/α   predicted    -0.1038737E-03 ( -23.16%)
   displ. norm   :     0.2715491 α      lambda       -0.1494919E-03
   maximum displ.:     0.1373057 α      in ANC's #5, #8, #6, ...

........................................................................
.............................. CYCLE   13 ..............................
........................................................................
   1   -144.8186293 -0.144819E+03  0.430E-02    2.08       0.0  T
   2   -144.8186318 -0.243356E-05  0.241E-02    2.09       1.0  T
   3   -144.8186318  0.167360E-07  0.424E-03    2.09       2.4  T
   4   -144.8186326 -0.813165E-06  0.192E-03    2.09       5.3  T
   5   -144.8186326 -0.410587E-07  0.757E-04    2.09      13.5  T
   6   -144.8186326 -0.734778E-08  0.562E-04    2.09      18.2  T
     SCC iter.                  ...        0 min,  0.271 sec
     gradient                   ...        0 min,  0.101 sec
 * total energy  :  -142.7302652 Eh     change       -0.1114291E-03 Eh
   gradient norm :     0.0042576 Eh/α   predicted    -0.8026046E-04 ( -27.97%)
   displ. norm   :     0.3008576 α      lambda       -0.1546175E-03
   maximum displ.:     0.1574249 α      in ANC's #5, #6, #8, ...

........................................................................
.............................. CYCLE   14 ..............................
........................................................................
   1   -144.8176128 -0.144818E+03  0.432E-02    2.09       0.0  T
   2   -144.8176153 -0.247197E-05  0.242E-02    2.09       1.0  T
   3   -144.8176150  0.252783E-06  0.478E-03    2.09       2.1  T
   4   -144.8176161 -0.109343E-05  0.207E-03    2.09       4.9  T
   5   -144.8176162 -0.412742E-07  0.877E-04    2.09      11.6  T
   6   -144.8176162 -0.752277E-08  0.668E-04    2.09      15.3  T
     SCC iter.                  ...        0 min,  0.284 sec
     gradient                   ...        0 min,  0.093 sec
 * total energy  :  -142.7303780 Eh     change       -0.1128161E-03 Eh
   gradient norm :     0.0032364 Eh/α   predicted    -0.8431119E-04 ( -25.27%)
   displ. norm   :     0.3119258 α      lambda       -0.1484319E-03
   maximum displ.:     0.1606508 α      in ANC's #5, #6, #8, ...

........................................................................
.............................. CYCLE   15 ..............................
........................................................................
   1   -144.8183409 -0.144818E+03  0.456E-02    2.09       0.0  T
   2   -144.8183434 -0.249771E-05  0.254E-02    2.09       1.0  T
   3   -144.8183436 -0.257049E-06  0.407E-03    2.09       2.5  T
   4   -144.8183442 -0.540975E-06  0.220E-03    2.09       4.6  T
   5   -144.8183442 -0.642906E-07  0.987E-04    2.09      10.3  T
   6   -144.8183443 -0.103755E-07  0.745E-04    2.09      13.7  T
     SCC iter.                  ...        0 min,  0.325 sec
     gradient                   ...        0 min,  0.098 sec
 * total energy  :  -142.7304920 Eh     change       -0.1140068E-03 Eh
   gradient norm :     0.0040790 Eh/α   predicted    -0.8143756E-04 ( -28.57%)
   displ. norm   :     0.3421654 α      lambda       -0.1537804E-03
   maximum displ.:     0.1769362 α      in ANC's #5, #6, #8, ...

........................................................................
.............................. CYCLE   16 ..............................
........................................................................
   1   -144.8184395 -0.144818E+03  0.460E-02    2.09       0.0  T
   2   -144.8184417 -0.224860E-05  0.256E-02    2.09       1.0  T
   3   -144.8184422 -0.525187E-06  0.368E-03    2.09       2.8  T
   4   -144.8184424 -0.155950E-06  0.227E-03    2.09       4.5  T
   5   -144.8184425 -0.970515E-07  0.116E-03    2.09       8.8  T
   6   -144.8184425 -0.148768E-07  0.879E-04    2.09      11.6  T
   7   -144.8184425 -0.823621E-08  0.427E-04    2.09      23.9  T
     SCC iter.                  ...        0 min,  0.326 sec
     gradient                   ...        0 min,  0.095 sec
 * total energy  :  -142.7306140 Eh     change       -0.1219298E-03 Eh
   gradient norm :     0.0041090 Eh/α   predicted    -0.8589921E-04 ( -29.55%)
   displ. norm   :     0.3599051 α      lambda       -0.1443347E-03
   maximum displ.:     0.1859894 α      in ANC's #5, #6, #8, ...

........................................................................
.............................. CYCLE   17 ..............................
........................................................................
   1   -144.8191720 -0.144819E+03  0.482E-02    2.09       0.0  T
   2   -144.8191742 -0.215909E-05  0.269E-02    2.09       1.0  T
   3   -144.8191746 -0.449503E-06  0.381E-03    2.09       2.7  T
   4   -144.8191749 -0.210428E-06  0.231E-03    2.09       4.4  T
   5   -144.8191749 -0.880617E-07  0.120E-03    2.09       8.5  T
   6   -144.8191750 -0.157853E-07  0.915E-04    2.09      11.2  T
   7   -144.8191750 -0.900059E-08  0.434E-04    2.09      23.5  T
     SCC iter.                  ...        0 min,  0.441 sec
     gradient                   ...        0 min,  0.142 sec
 * total energy  :  -142.7307185 Eh     change       -0.1045883E-03 Eh
   gradient norm :     0.0028624 Eh/α   predicted    -0.8151978E-04 ( -22.06%)
   displ. norm   :     0.2745313 α      lambda       -0.7929515E-04
   maximum displ.:     0.1440342 α      in ANC's #5, #6, #8, ...

........................................................................
.............................. CYCLE   18 ..............................
........................................................................
   1   -144.8195772 -0.144820E+03  0.363E-02    2.09       0.0  T
   2   -144.8195782 -0.990123E-06  0.203E-02    2.09       1.0  T
   3   -144.8195784 -0.164804E-06  0.296E-03    2.09       3.4  T
   4   -144.8195785 -0.145360E-06  0.177E-03    2.09       5.8  T
   5   -144.8195786 -0.480268E-07  0.926E-04    2.09      11.0  T
   6   -144.8195786 -0.839657E-08  0.719E-04    2.09      14.2  T
     SCC iter.                  ...        0 min,  0.389 sec
     gradient                   ...        0 min,  0.151 sec
 * total energy  :  -142.7307763 Eh     change       -0.5778016E-04 Eh
   gradient norm :     0.0019158 Eh/α   predicted    -0.4263846E-04 ( -26.21%)
   displ. norm   :     0.3398055 α      lambda       -0.5582770E-04
   maximum displ.:     0.1766438 α      in ANC's #5, #6, #8, ...

........................................................................
.............................. CYCLE   19 ..............................
........................................................................
   1   -144.8203751 -0.144820E+03  0.470E-02    2.09       0.0  T
   2   -144.8203763 -0.120122E-05  0.263E-02    2.09       1.0  T
   3   -144.8203765 -0.143120E-06  0.386E-03    2.09       2.6  T
   4   -144.8203767 -0.232691E-06  0.234E-03    2.09       4.4  T
   5   -144.8203768 -0.908701E-07  0.124E-03    2.09       8.2  T
   6   -144.8203768 -0.133826E-07  0.964E-04    2.09      10.6  T
   7   -144.8203768 -0.115234E-07  0.446E-04    2.09      22.9  T
     SCC iter.                  ...        0 min,  0.487 sec
     gradient                   ...        0 min,  0.066 sec
 * total energy  :  -142.7308291 Eh     change       -0.5281250E-04 Eh
   gradient norm :     0.0028412 Eh/α   predicted    -0.2934943E-04 ( -44.43%)
   displ. norm   :     0.1336592 α      lambda       -0.3804791E-04
   maximum displ.:     0.0648944 α      in ANC's #5, #6, #1, ...

........................................................................
.............................. CYCLE   20 ..............................
........................................................................
   1   -144.8202403 -0.144820E+03  0.214E-02    2.09       0.0  T
   2   -144.8202405 -0.261974E-06  0.119E-02    2.09       1.0  T
   3   -144.8202405 -0.137038E-07  0.180E-03    2.09       5.7  T
   4   -144.8202406 -0.701737E-07  0.107E-03    2.09       9.5  T
   5   -144.8202406 -0.188890E-07  0.546E-04    2.09      18.7  T
   6   -144.8202406 -0.253559E-08  0.424E-04    2.09      24.1  T
     SCC iter.                  ...        0 min,  0.197 sec
     gradient                   ...        0 min,  0.082 sec
 * total energy  :  -142.7308602 Eh     change       -0.3107612E-04 Eh
   gradient norm :     0.0023938 Eh/α   predicted    -0.1936816E-04 ( -37.68%)
   displ. norm   :     0.2581777 α      lambda       -0.7526940E-04
   maximum displ.:     0.1135992 α      in ANC's #5, #6, #1, ...
 * RMSD in coord.:     0.5154441 α      energy gain  -0.2619385E-01 Eh

generating ANC from model Hessian ...
Using Lindh-Hessian (1995)
 Shifting diagonal of input Hessian by    9.8525874934887875E-003
 Lowest  eigenvalues of input Hessian
    0.000000    0.000000    0.000000    0.000000    0.000000    0.000000
    0.010000    0.010006    0.010070    0.010175    0.010278    0.010491
    0.010676    0.010722    0.010943    0.011136    0.011382    0.011585
 Highest eigenvalues
    2.141197    2.142396    2.144210    2.160159    2.164331    2.165493


........................................................................
.............................. CYCLE   21 ..............................
........................................................................
   1   -144.8204528 -0.144820E+03  0.466E-02    2.08       0.0  T
   2   -144.8204541 -0.133970E-05  0.260E-02    2.09       1.0  T
   3   -144.8204543 -0.186831E-06  0.371E-03    2.08       2.8  T
   4   -144.8204545 -0.231063E-06  0.229E-03    2.09       4.5  T
   5   -144.8204546 -0.947506E-07  0.115E-03    2.09       8.9  T
   6   -144.8204547 -0.128624E-07  0.890E-04    2.09      11.5  T
   7   -144.8204547 -0.896247E-08  0.377E-04    2.08      27.0  T
     SCC iter.                  ...        0 min,  0.300 sec
     gradient                   ...        0 min,  0.076 sec
 * total energy  :  -142.7309108 Eh     change       -0.5062415E-04 Eh
   gradient norm :     0.0022114 Eh/α   predicted     0.0000000E+00 (-100.00%)
   displ. norm   :     0.0257102 α      lambda       -0.1492129E-04
   maximum displ.:     0.0115797 α      in ANC's #1, #10, #15, ...

........................................................................
.............................. CYCLE   22 ..............................
........................................................................
   1   -144.8203349 -0.144820E+03  0.755E-03    2.09       0.0  T
   2   -144.8203350 -0.723714E-07  0.423E-03    2.09       2.4  T
   3   -144.8203350  0.417799E-11  0.819E-04    2.09      12.5  T
   4   -144.8203350 -0.205291E-07  0.483E-04    2.09      21.1  T
     SCC iter.                  ...        0 min,  0.184 sec
     gradient                   ...        0 min,  0.108 sec
 * total energy  :  -142.7309238 Eh     change       -0.1296663E-04 Eh
   gradient norm :     0.0010814 Eh/α   predicted    -0.8099474E-05 ( -37.54%)
   displ. norm   :     0.1090019 α      lambda       -0.2716904E-04
   maximum displ.:     0.0515137 α      in ANC's #1, #10, #8, ...

........................................................................
.............................. CYCLE   23 ..............................
........................................................................
   1   -144.8199920 -0.144820E+03  0.283E-02    2.09       0.0  T
   2   -144.8199929 -0.896823E-06  0.157E-02    2.09       1.0  T
   3   -144.8199930 -0.110829E-06  0.263E-03    2.09       3.9  T
   4   -144.8199932 -0.158971E-06  0.161E-03    2.09       6.3  T
   5   -144.8199932 -0.396376E-07  0.845E-04    2.09      12.1  T
   6   -144.8199932 -0.697318E-08  0.640E-04    2.09      15.9  T
     SCC iter.                  ...        0 min,  0.337 sec
     gradient                   ...        0 min,  0.105 sec
 * total energy  :  -142.7309428 Eh     change       -0.1897498E-04 Eh
   gradient norm :     0.0024042 Eh/α   predicted    -0.1365645E-04 ( -28.03%)
   displ. norm   :     0.0273553 α      lambda       -0.8555375E-05
   maximum displ.:     0.0152780 α      in ANC's #1, #10, #2, ...

........................................................................
.............................. CYCLE   24 ..............................
........................................................................
   1   -144.8200955 -0.144820E+03  0.617E-03    2.09       0.0  T
   2   -144.8200956 -0.425689E-07  0.344E-03    2.09       3.0  T
   3   -144.8200956 -0.136819E-08  0.603E-04    2.09      16.9  T
   4   -144.8200956 -0.120244E-07  0.325E-04    2.09      31.4  T
     SCC iter.                  ...        0 min,  0.289 sec
     gradient                   ...        0 min,  0.120 sec
 * total energy  :  -142.7309505 Eh     change       -0.7712343E-05 Eh
   gradient norm :     0.0017025 Eh/α   predicted    -0.4281344E-05 ( -44.49%)
   displ. norm   :     0.1787473 α      lambda       -0.3001604E-04
   maximum displ.:     0.0954679 α      in ANC's #1, #10, #2, ...

........................................................................
.............................. CYCLE   25 ..............................
........................................................................
   1   -144.8204249 -0.144820E+03  0.390E-02    2.08       0.0  T
   2   -144.8204263 -0.141243E-05  0.216E-02    2.08       1.0  T
   3   -144.8204265 -0.208415E-06  0.300E-03    2.08       3.4  T
   4   -144.8204267 -0.197512E-06  0.166E-03    2.08       6.1  T
   5   -144.8204268 -0.565132E-07  0.658E-04    2.08      15.5  T
   6   -144.8204268 -0.403458E-08  0.488E-04    2.08      20.9  T
     SCC iter.                  ...        0 min,  0.344 sec
     gradient                   ...        0 min,  0.112 sec
 * total energy  :  -142.7309750 Eh     change       -0.2450484E-04 Eh
   gradient norm :     0.0022628 Eh/α   predicted    -0.1524291E-04 ( -37.80%)
   displ. norm   :     0.0642413 α      lambda       -0.9459600E-05
   maximum displ.:     0.0354170 α      in ANC's #1, #2, #10, ...

........................................................................
.............................. CYCLE   26 ..............................
........................................................................
   1   -144.8204317 -0.144820E+03  0.135E-02    2.08       0.0  T
   2   -144.8204319 -0.155944E-06  0.751E-03    2.08       1.4  T
   3   -144.8204319 -0.319280E-07  0.108E-03    2.08       9.5  T
   4   -144.8204319 -0.178964E-07  0.662E-04    2.08      15.4  T
   5   -144.8204319 -0.834370E-08  0.304E-04    2.08      33.6  T
     SCC iter.                  ...        0 min,  0.269 sec
     gradient                   ...        0 min,  0.087 sec
 * total energy  :  -142.7309835 Eh     change       -0.8499066E-05 Eh
   gradient norm :     0.0018148 Eh/α   predicted    -0.4751351E-05 ( -44.10%)
   displ. norm   :     0.2135827 α      lambda       -0.2182567E-04
   maximum displ.:     0.1174208 α      in ANC's #1, #2, #10, ...

........................................................................
.............................. CYCLE   27 ..............................
........................................................................
   1   -144.8203179 -0.144820E+03  0.429E-02    2.08       0.0  T
   2   -144.8203195 -0.153595E-05  0.237E-02    2.08       1.0  T
   3   -144.8203198 -0.318214E-06  0.329E-03    2.08       3.1  T
   4   -144.8203199 -0.147989E-06  0.199E-03    2.08       5.1  T
   5   -144.8203200 -0.820970E-07  0.866E-04    2.08      11.8  T
   6   -144.8203200 -0.621236E-08  0.667E-04    2.08      15.3  T
     SCC iter.                  ...        0 min,  0.281 sec
     gradient                   ...        0 min,  0.106 sec
 * total energy  :  -142.7310042 Eh     change       -0.2075750E-04 Eh
   gradient norm :     0.0009504 Eh/α   predicted    -0.1113661E-04 ( -46.35%)
   displ. norm   :     0.1090608 α      lambda       -0.6989125E-05
   maximum displ.:     0.0633312 α      in ANC's #1, #2, #10, ...

........................................................................
.............................. CYCLE   28 ..............................
........................................................................
   1   -144.8202705 -0.144820E+03  0.196E-02    2.08       0.0  T
   2   -144.8202708 -0.304877E-06  0.109E-02    2.08       1.0  T
   3   -144.8202709 -0.632652E-07  0.161E-03    2.08       6.3  T
   4   -144.8202709 -0.345997E-07  0.101E-03    2.08      10.1  T
   5   -144.8202709 -0.206270E-07  0.480E-04    2.08      21.3  T
   6   -144.8202709 -0.178744E-08  0.363E-04    2.08      28.1  T
     SCC iter.                  ...        0 min,  0.346 sec
     gradient                   ...        0 min,  0.125 sec
 * total energy  :  -142.7310129 Eh     change       -0.8658844E-05 Eh
   gradient norm :     0.0009947 Eh/α   predicted    -0.3515408E-05 ( -59.40%)
   displ. norm   :     0.1152027 α      lambda       -0.9450598E-05
   maximum displ.:     0.0677894 α      in ANC's #1, #2, #3, ...

........................................................................
.............................. CYCLE   29 ..............................
........................................................................
   1   -144.8204177 -0.144820E+03  0.189E-02    2.08       0.0  T
   2   -144.8204180 -0.314359E-06  0.105E-02    2.08       1.0  T
   3   -144.8204181 -0.685070E-07  0.150E-03    2.08       6.8  T
   4   -144.8204181 -0.273282E-07  0.927E-04    2.08      11.0  T
   5   -144.8204182 -0.178689E-07  0.449E-04    2.08      22.8  T
     SCC iter.                  ...        0 min,  0.215 sec
     gradient                   ...        0 min,  0.063 sec
 * total energy  :  -142.7310243 Eh     change       -0.1143923E-04 Eh
   gradient norm :     0.0006501 Eh/α   predicted    -0.4754193E-05 ( -58.44%)
   displ. norm   :     0.1485716 α      lambda       -0.1074820E-04
   maximum displ.:     0.0870663 α      in ANC's #1, #2, #3, ...

........................................................................
.............................. CYCLE   30 ..............................
........................................................................
   1   -144.8203576 -0.144820E+03  0.228E-02    2.08       0.0  T
   2   -144.8203581 -0.460952E-06  0.127E-02    2.08       1.0  T
   3   -144.8203582 -0.101511E-06  0.184E-03    2.08       5.5  T
   4   -144.8203582 -0.427083E-07  0.113E-03    2.08       9.0  T
   5   -144.8203582 -0.236492E-07  0.587E-04    2.08      17.4  T
   6   -144.8203582 -0.346535E-08  0.450E-04    2.08      22.7  T
     SCC iter.                  ...        0 min,  0.333 sec
     gradient                   ...        0 min,  0.110 sec
 * total energy  :  -142.7310365 Eh     change       -0.1218776E-04 Eh
   gradient norm :     0.0006669 Eh/α   predicted    -0.5430003E-05 ( -55.45%)
   displ. norm   :     0.1465263 α      lambda       -0.8909296E-05
   maximum displ.:     0.0866206 α      in ANC's #1, #2, #3, ...

........................................................................
.............................. CYCLE   31 ..............................
........................................................................
   1   -144.8203121 -0.144820E+03  0.207E-02    2.08       0.0  T
   2   -144.8203125 -0.334455E-06  0.115E-02    2.08       1.0  T
   3   -144.8203125 -0.646567E-07  0.162E-03    2.08       6.3  T
   4   -144.8203126 -0.409195E-07  0.988E-04    2.08      10.3  T
   5   -144.8203126 -0.168592E-07  0.508E-04    2.08      20.1  T
     SCC iter.                  ...        0 min,  0.216 sec
     gradient                   ...        0 min,  0.083 sec
 * total energy  :  -142.7310467 Eh     change       -0.1020540E-04 Eh
   gradient norm :     0.0007373 Eh/α   predicted    -0.4497714E-05 ( -55.93%)
   displ. norm   :     0.1312189 α      lambda       -0.8099482E-05
   maximum displ.:     0.0771446 α      in ANC's #1, #2, #3, ...

........................................................................
.............................. CYCLE   32 ..............................
........................................................................
   1   -144.8204904 -0.144820E+03  0.176E-02    2.08       0.0  T
   2   -144.8204906 -0.202988E-06  0.976E-03    2.08       1.0  T
   3   -144.8204906 -0.415063E-07  0.147E-03    2.08       6.9  T
   4   -144.8204907 -0.255081E-07  0.921E-04    2.08      11.1  T
   5   -144.8204907 -0.145323E-07  0.517E-04    2.08      19.7  T
     SCC iter.                  ...        0 min,  0.282 sec
     gradient                   ...        0 min,  0.085 sec
 * total energy  :  -142.7310566 Eh     change       -0.9835255E-05 Eh
   gradient norm :     0.0006416 Eh/α   predicted    -0.4081365E-05 ( -58.50%)
   displ. norm   :     0.1497902 α      lambda       -0.9524475E-05
   maximum displ.:     0.0875304 α      in ANC's #1, #2, #3, ...

........................................................................
.............................. CYCLE   33 ..............................
........................................................................
   1   -144.8204453 -0.144820E+03  0.189E-02    2.08       0.0  T
   2   -144.8204455 -0.216257E-06  0.107E-02    2.08       1.0  T
   3   -144.8204455 -0.377011E-07  0.144E-03    2.08       7.1  T
   4   -144.8204456 -0.379550E-07  0.913E-04    2.08      11.2  T
   5   -144.8204456 -0.123083E-07  0.540E-04    2.08      18.9  T
     SCC iter.                  ...        0 min,  0.269 sec
     gradient                   ...        0 min,  0.116 sec
 * total energy  :  -142.7310673 Eh     change       -0.1074533E-04 Eh
   gradient norm :     0.0004813 Eh/α   predicted    -0.4813232E-05 ( -55.21%)
   displ. norm   :     0.1287850 α      lambda       -0.7406588E-05
   maximum displ.:     0.0757383 α      in ANC's #1, #2, #3, ...

........................................................................
.............................. CYCLE   34 ..............................
........................................................................
   1   -144.8204445 -0.144820E+03  0.179E-02    2.08       0.0  T
   2   -144.8204447 -0.225851E-06  0.100E-02    2.08       1.0  T
   3   -144.8204448 -0.504589E-07  0.140E-03    2.08       7.3  T
   4   -144.8204448 -0.200205E-07  0.849E-04    2.08      12.0  T
   5   -144.8204448 -0.136884E-07  0.467E-04    2.08      21.9  T
     SCC iter.                  ...        0 min,  0.262 sec
     gradient                   ...        0 min,  0.114 sec
 * total energy  :  -142.7310755 Eh     change       -0.8213611E-05 Eh
   gradient norm :     0.0004452 Eh/α   predicted    -0.3732440E-05 ( -54.56%)
   displ. norm   :     0.1125602 α      lambda       -0.6072621E-05
   maximum displ.:     0.0657966 α      in ANC's #1, #2, #3, ...

........................................................................
.............................. CYCLE   35 ..............................
........................................................................
   1   -144.8204734 -0.144820E+03  0.158E-02    2.08       0.0  T
   2   -144.8204736 -0.207327E-06  0.896E-03    2.08       1.1  T
   3   -144.8204736 -0.495153E-07  0.115E-03    2.08       8.9  T
   4   -144.8204737 -0.193665E-07  0.729E-04    2.08      14.0  T
   5   -144.8204737 -0.856241E-08  0.398E-04    2.08      25.6  T
     SCC iter.                  ...        0 min,  0.258 sec
     gradient                   ...        0 min,  0.142 sec
 * total energy  :  -142.7310826 Eh     change       -0.7069747E-05 Eh
   gradient norm :     0.0004738 Eh/α   predicted    -0.3057710E-05 ( -56.75%)
   displ. norm   :     0.1178815 α      lambda       -0.6421430E-05
   maximum displ.:     0.0679640 α      in ANC's #1, #2, #3, ...

........................................................................
.............................. CYCLE   36 ..............................
........................................................................
   1   -144.8204104 -0.144820E+03  0.175E-02    2.08       0.0  T
   2   -144.8204107 -0.279332E-06  0.977E-03    2.08       1.0  T
   3   -144.8204108 -0.720680E-07  0.125E-03    2.08       8.2  T
   4   -144.8204108 -0.148106E-07  0.756E-04    2.08      13.5  T
   5   -144.8204108 -0.111073E-07  0.367E-04    2.08      27.8  T
     SCC iter.                  ...        0 min,  0.448 sec
     gradient                   ...        0 min,  0.133 sec
 * total energy  :  -142.7310901 Eh     change       -0.7544608E-05 Eh
   gradient norm :     0.0004993 Eh/α   predicted    -0.3235023E-05 ( -57.12%)
   displ. norm   :     0.1297342 α      lambda       -0.6690139E-05
   maximum displ.:     0.0740942 α      in ANC's #1, #2, #3, ...

........................................................................
.............................. CYCLE   37 ..............................
........................................................................
   1   -144.8204160 -0.144820E+03  0.187E-02    2.08       0.0  T
   2   -144.8204163 -0.314573E-06  0.104E-02    2.08       1.0  T
   3   -144.8204164 -0.802274E-07  0.128E-03    2.08       8.0  T
   4   -144.8204164 -0.156157E-07  0.778E-04    2.08      13.1  T
   5   -144.8204164 -0.130851E-07  0.362E-04    2.08      28.2  T
     SCC iter.                  ...        0 min,  0.243 sec
     gradient                   ...        0 min,  0.065 sec
 * total energy  :  -142.7310975 Eh     change       -0.7350729E-05 Eh
   gradient norm :     0.0004346 Eh/α   predicted    -0.3372568E-05 ( -54.12%)
   displ. norm   :     0.1118218 α      lambda       -0.5095340E-05
   maximum displ.:     0.0648931 α      in ANC's #1, #2, #3, ...

........................................................................
.............................. CYCLE   38 ..............................
........................................................................
   1   -144.8204638 -0.144820E+03  0.156E-02    2.08       0.0  T
   2   -144.8204640 -0.204347E-06  0.859E-03    2.08       1.2  T
   3   -144.8204641 -0.501788E-07  0.113E-03    2.08       9.0  T
   4   -144.8204641 -0.964619E-08  0.680E-04    2.08      15.0  T
   5   -144.8204641 -0.109504E-07  0.300E-04    2.08      34.0  T
     SCC iter.                  ...        0 min,  0.180 sec
     gradient                   ...        0 min,  0.079 sec
 * total energy  :  -142.7311028 Eh     change       -0.5296133E-05 Eh
   gradient norm :     0.0004057 Eh/α   predicted    -0.2566318E-05 ( -51.54%)
   displ. norm   :     0.0891492 α      lambda       -0.3798410E-05
   maximum displ.:     0.0533404 α      in ANC's #1, #2, #3, ...

........................................................................
.............................. CYCLE   39 ..............................
........................................................................
   1   -144.8205046 -0.144821E+03  0.118E-02    2.08       0.0  T
   2   -144.8205047 -0.121458E-06  0.662E-03    2.08       1.5  T
   3   -144.8205047 -0.285910E-07  0.825E-04    2.08      12.4  T
   4   -144.8205047 -0.669817E-08  0.464E-04    2.08      22.0  T
     SCC iter.                  ...        0 min,  0.214 sec
     gradient                   ...        0 min,  0.134 sec
 * total energy  :  -142.7311070 Eh     change       -0.4169853E-05 Eh
   gradient norm :     0.0003215 Eh/α   predicted    -0.1909693E-05 ( -54.20%)
   displ. norm   :     0.0864456 α      lambda       -0.3451269E-05
   maximum displ.:     0.0534312 α      in ANC's #1, #2, #3, ...

   *** GEOMETRY OPTIMIZATION CONVERGED AFTER 39 ITERATIONS ***

------------------------------------------------------------------------
 total energy gain   :        -0.0264406 Eh      -16.5917 kcal/mol
 total RMSD          :         0.5824795 a0        0.3082 Å
 total power (kW/mol):        -1.7799948 (step)   -3.1985 (real)
------------------------------------------------------------------------

 ANCopt (total)                0 d,  0 h,  0 min, 21.704 sec
 optimizer setup                ...        0 min,  0.000 sec (  0.001%)
 model hessian                  ...        0 min,  0.177 sec (  0.814%)
 ANC generation                 ...        0 min,  0.031 sec (  0.141%)
 coordinate transformation      ...        0 min,  0.040 sec (  0.186%)
 single point calculation       ...        0 min, 21.037 sec ( 96.928%)
 optimization log               ...        0 min,  0.026 sec (  0.120%)
 hessian update                 ...        0 min,  0.309 sec (  1.424%)
 rational function              ...        0 min,  0.049 sec (  0.228%)

================
 final structure:
================
96
 xtb: 6.4.1 (23d549d)
C        -4.19101867745684   -5.08851766934803    0.96569177180389
C        -3.07212670142925   -5.90037229572001    1.63033627438328
C        -3.14810829353858    6.25268529041115    3.17943416249566
C        -2.03673958625007    7.00767618913645    2.45665082418186
C         6.58561423723381    0.48596223949466    2.78352492439262
C         6.77619541801120    1.66886529947891    1.83943899122336
C        -3.92417769131144   -4.94105658372587   -0.52645316840601
C        -1.73552776377401   -5.70881534304743    0.90696757968248
C        -3.87448221463746    5.31927183293411    2.21716491792323
C        -1.05854205720546    6.03093541070230    1.81329107112107
C         5.95601694762039   -0.68776315137291    2.04194763051770
C         5.44084579714270    2.08393909964165    1.23231473666976
C        -3.34551326285632    0.13253916660919   -0.65592661673405
C         2.38791929915746   -3.29441289797182   -0.62455136660092
C         0.96040961690927    2.26203017230603   -0.93978634403189
C        -4.33889968842830   -0.07717144042344   -2.84000094709205
C         2.31200828779972   -4.93219505362018   -2.38993066194347
C        -4.43705246373763    2.03040315645141   -1.65917830704631
C         4.33740606649850   -3.67929443489175   -1.98638198355910
C        -0.84521796822714    1.85482885826880   -2.48259405806495
C         1.15454079540285    0.50789773865501   -2.58207389919850
C        -3.25702193050056   -2.04953508152940   -1.81440758506835
C         0.29680095975718   -4.56969986793993   -1.01193295628235
C        -3.25696383656964    2.30169317073551    0.50289886581371
C         4.44601376529547   -1.96798532445702   -0.21594220975057
C        -1.09897495155177    3.66130968192007   -0.84744408735060
C         3.04818515847699    0.92113864096699   -1.07359313742097
C        -3.65591651293983   -0.64681514567921   -1.76709651150142
C         1.68227302383768   -4.25446440865426   -1.34459326601419
C        -3.71441027066970    1.47226254045392   -0.60135282707826
C         3.71113607733305   -2.99976330551362   -0.93945605960192
C        -0.30325079132797    2.58538939732098   -1.42356316580570
C         1.70316568373637    1.24343430246490   -1.53083508700600
C        -4.73310085841669    1.24710157716914   -2.75673022331382
C         3.62793487372463   -4.63438346522341   -2.68938168013336
C        -0.11910084379330    0.81158646651890   -3.02023943115938
C        -2.67415587824905   -4.07376673089735   -0.77789316098827
C        -1.62791955285649   -4.28647710589798    0.34343626140005
C        -2.90214466560364    4.32583761147157    1.58495365738455
C        -1.77793679502854    5.10644142832761    0.83521395667968
C         4.60298138370139   -0.28772236859508    1.44300960454229
C         4.78670525703670    0.92114309382734    0.48693871428747
Br       -5.68561389197539    2.02492412071489   -4.22908810979948
Br        4.49457476562150   -5.57026979862194   -4.12354937702591
Br       -0.89761076463090   -0.23743649942772   -4.41427079055125
N        -3.04426750235328   -2.69094136693937   -0.75034496208973
N        -0.28382676881313   -3.97725957907485   -0.06086228406539
N        -3.56321073718546    3.52472649530342    0.60750951497782
N         3.93018871080576   -1.36436586012548    0.76557837731065
N        -0.86449977519268    4.14696484718463    0.29585650742158
N         3.48994536475628    1.32072552230387    0.03713314963845
H        -5.15234957029744   -5.57980102507299    1.12321642427602
H        -4.24997129038623   -4.09189921006326    1.40436542338262
H        -2.97383844379027   -5.59309594343832    2.67221110521557
H        -3.32569257655815   -6.96204668138343    1.62196899130326
H        -2.71827182440292    5.66742785711243    3.99549150230751
H        -3.86106872452231    6.95817970259156    3.60979393453424
H        -1.50288866587263    7.64946733175499    3.15963563970514
H        -2.47342931844460    7.64475799985402    1.68407356349717
H         7.54733918072604    0.17980927432948    3.19969779457759
H         5.93714759254946    0.78124700082736    3.61065202547073
H         7.20867185871148    2.51275697439957    2.37941618306885
H         7.46980787186069    1.39117145626644    1.04153251206441
H        -4.77656754361784   -4.47113435053100   -1.02173058389860
H        -3.77676076139701   -5.92516010199016   -0.97387113049368
H        -0.90491086094242   -5.87908686309889    1.59426828118391
H        -1.63586484630421   -6.42172697207289    0.08603204059021
H        -4.65147724213237    4.76026087723920    2.74288017955201
H        -4.35285776341492    5.89180324418027    1.42080086904476
H        -0.57528156709994    5.41853451132675    2.57598827897125
H        -0.27926869209877    6.57185177996819    1.27316553991561
H         5.79872686031978   -1.52881513538096    2.72079088936763
H         6.62580959031598   -1.01839546581871    1.24471618589365
H         4.75572406004133    2.41375656305649    2.01420679911264
H         5.58012006555502    2.91256213690111    0.53491879770697
H        -2.79427972610443   -0.32230870860639    0.15185485489080
H         1.90208608251197   -2.76918841855521    0.18061973171884
H         1.37716903986782    2.81673472981946   -0.11597543934358
H        -4.56247952523289   -0.66221714934071   -3.71900539747188
H         1.77929888743806   -5.67966520880753   -2.95856011945827
H        -4.73144167555573    3.06623085606578   -1.60469640152506
H         5.36392427089145   -3.46499371532527   -2.24419344262063
H        -1.82605040252701    2.09375540969217   -2.86398016986747
H         1.71383222825919   -0.29472204506080   -3.03905404870436
H        -3.16878131243626   -2.49730744003188   -2.81522383974306
H        -0.16917444761150   -5.34608313246696   -1.63518704531191
H        -2.58561180419874    1.80441366359189    1.21743865550569
H         5.45275440790441   -1.76009163514475   -0.60698169198319
H        -1.93292450407557    4.01389795100297   -1.47204577520289
H         3.64257287025470    0.29326874818332   -1.75666641240797
H        -2.24455488373220   -4.34876502652446   -1.75808559186816
H        -1.85773680339209   -3.57156834248520    1.14178506900301
H        -2.41533371824963    3.70966353446241    2.36114986647465
H        -2.27141631605370    5.68911320147868    0.03939956654787
H         3.92439564764885    0.02259541005747    2.24616142995767
H         5.42737550223627    0.59358878495779   -0.35281327410654

 Bond Distances (Angstroems)
 ---------------------------
C1-C2=1.5339         C1-C7=1.5230         C1-H52=1.0910        C1-H53=1.0905        C2-C1=1.5339         C2-C8=1.5318         
C2-H54=1.0907        C2-H55=1.0916        C3-C4=1.5256         C3-C9=1.5247         C3-H56=1.0924        C3-H57=1.0914        
C4-C3=1.5256         C4-C10=1.5247        C4-H58=1.0914        C4-H59=1.0924        C5-C6=1.5254         C5-C11=1.5245        
C5-H60=1.0917        C5-H61=1.0917        C6-C5=1.5254         C6-C12=1.5245        C6-H62=1.0912        C6-H63=1.0931        
C7-C1=1.5230         C7-C37=1.5421        C7-H64=1.0921        C7-H65=1.0910        C8-C2=1.5318         C8-C38=1.5337        
C8-H66=1.0915        C8-H67=1.0918        C9-C3=1.5247         C9-C39=1.5271        C9-H68=1.0921        C9-H69=1.0913        
C10-C4=1.5247        C10-C40=1.5261       C10-H70=1.0910       C10-H71=1.0916       C11-C5=1.5245        C11-C41=1.5328       
C11-H72=1.0922       C11-H73=1.0925       C12-C6=1.5245        C12-C42=1.5283       C12-H74=1.0907       C12-H75=1.0920       
C13-C28=1.3923       C13-C30=1.3907       C13-H76=1.0785       C14-C29=1.3922       C14-C31=1.3917       C14-H77=1.0771       
C15-C32=1.3912       C15-C33=1.3923       C15-H78=1.0771       C16-C28=1.3936       C16-C34=1.3842       C16-H79=1.0793       
C17-C29=1.3959       C17-C35=1.3820       C17-H80=1.0797       C18-C30=1.3974       C18-C34=1.3805       C18-H81=1.0782       
C19-C31=1.3964       C19-C35=1.3819       C19-H82=1.0799       C20-C32=1.3961       C20-C36=1.3801       C20-H83=1.0792       
C21-C33=1.3954       C21-C36=1.3807       C21-H84=1.0797       C22-C28=1.4591       C22-N46=1.2605       C22-H85=1.1000       
C23-C29=1.4593       C23-N47=1.2620       C23-H86=1.0992       C24-C30=1.4548       C24-N48=1.2651       C24-H87=1.0993       
C25-C31=1.4588       C25-N49=1.2625       C25-H88=1.0998       C26-C32=1.4569       C26-N50=1.2641       C26-H89=1.1000       
C27-C33=1.4567       C27-N51=1.2604       C27-H90=1.1019       C28-C13=1.3923       C28-C16=1.3936       C28-C22=1.4591       
C29-C14=1.3922       C29-C17=1.3959       C29-C23=1.4593       C30-C13=1.3907       C30-C18=1.3974       C30-C24=1.4548       
C31-C14=1.3917       C31-C19=1.3964       C31-C25=1.4588       C32-C15=1.3912       C32-C20=1.3961       C32-C26=1.4569       
C33-C15=1.3923       C33-C21=1.3954       C33-C27=1.4567       C34-C16=1.3842       C34-C18=1.3805       C34-Br43=1.9184      
C35-C17=1.3820       C35-C19=1.3819       C35-Br44=1.9193      C36-C20=1.3801       C36-C21=1.3807       C36-Br45=1.9105      
C37-C7=1.5421        C37-C38=1.5483       C37-N46=1.4318       C37-H91=1.1050       C38-C8=1.5337        C38-C37=1.5483       
C38-N47=1.4372       C38-H92=1.0960       C39-C9=1.5271        C39-C40=1.5605       C39-N48=1.4262       C39-H93=1.1041       
C40-C10=1.5261       C40-C39=1.5605       C40-N50=1.4303       C40-H94=1.1029       C41-C11=1.5328       C41-C42=1.5522       
C41-N49=1.4390       C41-H95=1.0963       C42-C12=1.5283       C42-C41=1.5522       C42-N51=1.4295       C42-H96=1.1059       
Br43-C34=1.9184      Br44-C35=1.9193      Br45-C36=1.9105      N46-C22=1.2605       N46-C37=1.4318       N47-C23=1.2620       
N47-C38=1.4372       N48-C24=1.2651       N48-C39=1.4262       N49-C25=1.2625       N49-C41=1.4390       N50-C26=1.2641       
N50-C40=1.4303       N51-C27=1.2604       N51-C42=1.4295       H52-C1=1.0910        H53-C1=1.0905        H54-C2=1.0907        
H55-C2=1.0916        H56-C3=1.0924        H57-C3=1.0914        H58-C4=1.0914        H59-C4=1.0924        H60-C5=1.0917        
H61-C5=1.0917        H62-C6=1.0912        H63-C6=1.0931        H64-C7=1.0921        H65-C7=1.0910        H66-C8=1.0915        
H67-C8=1.0918        H68-C9=1.0921        H69-C9=1.0913        H70-C10=1.0910       H71-C10=1.0916       H72-C11=1.0922       
H73-C11=1.0925       H74-C12=1.0907       H75-C12=1.0920       H76-C13=1.0785       H77-C14=1.0771       H78-C15=1.0771       
H79-C16=1.0793       H80-C17=1.0797       H81-C18=1.0782       H82-C19=1.0799       H83-C20=1.0792       H84-C21=1.0797       
H85-C22=1.1000       H86-C23=1.0992       H87-C24=1.0993       H88-C25=1.0998       H89-C26=1.1000       H90-C27=1.1019       
H91-C37=1.1050       H92-C38=1.0960       H93-C39=1.1041       H94-C40=1.1029       H95-C41=1.0963       H96-C42=1.1059       
 C  H  Rav=1.0915 sigma=0.0077  Rmin=1.0771  Rmax=1.1059    45
 C  C  Rav=1.4607 sigma=0.0667  Rmin=1.3801  Rmax=1.5605    42
 N  C  Rav=1.3474 sigma=0.0850  Rmin=1.2604  Rmax=1.4390    12
 Br C  Rav=1.9160 sigma=0.0040  Rmin=1.9105  Rmax=1.9193     3

 selected bond angles (degree)
 --------------------
C7-C1-C2=110.36                H52-C1-C2=109.99               H52-C1-C7=109.84               H53-C1-C2=110.42               
H53-C1-C7=108.37               H53-C1-H52=107.81              C8-C2-C1=111.45                H54-C2-C1=109.30               
H54-C2-C8=109.71               H55-C2-C1=110.00               H55-C2-C8=108.71               H55-C2-H54=107.59              
C9-C3-C4=110.55                H56-C3-C4=109.42               H56-C3-C9=109.33               H57-C3-C4=110.05               
H57-C3-C9=109.47               H57-C3-H56=107.99              C10-C4-C3=110.50               H58-C4-C3=110.01               
H58-C4-C10=109.55              H59-C4-C3=109.42               H59-C4-C10=109.37              H59-C4-H58=107.95              
C11-C5-C6=110.34               H60-C5-C6=110.08               H60-C5-C11=109.47              H61-C5-C6=109.47               
H61-C5-C11=109.36              H61-C5-H60=108.08              C12-C6-C5=110.38               H62-C6-C5=110.06               
H62-C6-C12=109.49              H63-C6-C5=109.51               H63-C6-C12=109.53              H63-C6-H62=107.83              
C37-C7-C1=110.87               H64-C7-C1=110.44               H64-C7-C37=108.47              H65-C7-C1=109.76               
H65-C7-C37=109.32              H65-C7-H64=107.91              C38-C8-C2=110.53               H66-C8-C2=110.31               
H66-C8-C38=108.82              H67-C8-C2=110.67               H67-C8-C38=108.84              H67-C8-H66=107.59              
C39-C9-C3=110.87               H68-C9-C3=110.40               H68-C9-C39=108.62              H69-C9-C3=110.38               
H69-C9-C39=108.56              H69-C9-H68=107.94              C40-C10-C4=110.86              H70-C10-C4=110.41              
H70-C10-C40=108.47             H71-C10-C4=110.45              H71-C10-C40=108.64             H71-C10-H70=107.93             

 selected dihedral angles (degree)
 ---------------------------------
C8-C2-C1-C7= 30.10            C8-C2-C1-H52=151.45           C8-C2-C1-H53=270.31           H54-C2-C1-C7=151.53           
H54-C2-C1-H52=272.89          H54-C2-C1-H53= 31.74          H55-C2-C1-C7=269.46           H55-C2-C1-H52= 30.81          
H55-C2-C1-H53=149.67          C10-C4-C3-C9=302.85           C10-C4-C3-H56= 63.30          C10-C4-C3-H57=181.80          
H58-C4-C3-C9=181.76           H58-C4-C3-H56=302.21          H58-C4-C3-H57= 60.71          H59-C4-C3-C9= 63.33           
H59-C4-C3-H56=183.78          H59-C4-C3-H57=302.28          C12-C6-C5-C11= 57.92          C12-C6-C5-H60=178.85          
C12-C6-C5-H61=297.51          H62-C6-C5-C11=178.88          H62-C6-C5-H60=299.81          H62-C6-C5-H61= 58.48          
H63-C6-C5-C11=297.25          H63-C6-C5-H60= 58.19          H63-C6-C5-H61=176.85          C37-C7-C1-C2=293.33           
C37-C7-C1-H52=171.89          C37-C7-C1-H53= 54.35          H64-C7-C1-C2=173.08           H64-C7-C1-H52= 51.64          
H64-C7-C1-H53=294.10          H65-C7-C1-C2= 54.21           H65-C7-C1-H52=292.77          H65-C7-C1-H53=175.23          
C38-C8-C2-C1= 33.46           C38-C8-C2-H54=272.27          C38-C8-C2-H55=154.86          H66-C8-C2-C1=153.86           
H66-C8-C2-H54= 32.67          H66-C8-C2-H55=275.26          H67-C8-C2-C1=272.81           H67-C8-C2-H54=151.62          
H67-C8-C2-H55= 34.21          C39-C9-C3-C4= 58.05           C39-C9-C3-H56=297.54          C39-C9-C3-H57=179.43          
H68-C9-C3-C4=178.47           H68-C9-C3-H56= 57.96          H68-C9-C3-H57=299.85          H69-C9-C3-C4=297.72           
H69-C9-C3-H56=177.21          H69-C9-C3-H57= 59.10          C40-C10-C4-C3= 57.97          C40-C10-C4-H58=179.33         
C40-C10-C4-H59=297.46         H70-C10-C4-C3=297.73          H70-C10-C4-H58= 59.09         H70-C10-C4-H59=177.22         
H71-C10-C4-C3=178.43          H71-C10-C4-H58=299.80         H71-C10-C4-H59= 57.93         
           -------------------------------------------------
          |                Final Singlepoint                |
           -------------------------------------------------

          ...................................................
          :                      SETUP                      :
          :.................................................:
          :  # basis functions                 267          :
          :  # atomic orbitals                 264          :
          :  # shells                          150          :
          :  # electrons                       264          :
          :  max. iterations                   250          :
          :  Hamiltonian                  GFN2-xTB          :
          :  restarted?                      false          :
          :  GBSA solvation                   true          :
          :  PC potential                    false          :
          :  electronic temp.          300.0000000     K    :
          :  accuracy                    1.0000000          :
          :  -> integral cutoff          0.2500000E+02      :
          :  -> integral neglect         0.1000000E-07      :
          :  -> SCF convergence          0.1000000E-05 Eh   :
          :  -> wf. convergence          0.1000000E-03 e    :
          :  Broyden damping             0.4000000          :
          ...................................................

 iter      E             dE          RMSdq      gap      omega  full diag
   1   -144.8205047 -0.144821E+03  0.206E-04    2.08       0.0  T
   2   -144.8205047 -0.345239E-09  0.164E-04    2.08      62.1  T
   3   -144.8205047 -0.107974E-09  0.128E-04    2.08      79.5  T

   *** convergence criteria satisfied after 3 iterations ***

         #    Occupation            Energy/Eh            Energy/eV
      -------------------------------------------------------------
         1        2.0000           -0.8518938             -23.1812
       ...           ...                  ...                  ...
       126        2.0000           -0.4060335             -11.0487
       127        2.0000           -0.3891948             -10.5905
       128        2.0000           -0.3872933             -10.5388
       129        2.0000           -0.3870750             -10.5328
       130        2.0000           -0.3842751             -10.4567
       131        2.0000           -0.3770669             -10.2605
       132        2.0000           -0.3738122             -10.1719 (HOMO)
       133                         -0.2973759              -8.0920 (LUMO)
       134                         -0.2935827              -7.9888
       135                         -0.2913061              -7.9268
       136                         -0.2830542              -7.7023
       137                         -0.2797548              -7.6125
       ...                                ...                  ...
       264                          0.6614601              17.9992
      -------------------------------------------------------------
                  HL-Gap            0.0764363 Eh            2.0799 eV
             Fermi-level           -0.3355941 Eh           -9.1320 eV

 SCC (total)                   0 d,  0 h,  0 min,  0.363 sec
 SCC setup                      ...        0 min,  0.028 sec (  7.608%)
 Dispersion                     ...        0 min,  0.021 sec (  5.913%)
 classical contributions        ...        0 min,  0.016 sec (  4.281%)
 integral evaluation            ...        0 min,  0.038 sec ( 10.417%)
 iterations                     ...        0 min,  0.153 sec ( 42.140%)
 molecular gradient             ...        0 min,  0.107 sec ( 29.425%)
 printout                       ...        0 min,  0.001 sec (  0.199%)

         :::::::::::::::::::::::::::::::::::::::::::::::::::::
         ::                     SUMMARY                     ::
         :::::::::::::::::::::::::::::::::::::::::::::::::::::
         :: total energy            -142.731106970103 Eh    ::
         :: total w/o Gsasa/hb      -142.679283411439 Eh    ::
         :: gradient norm              0.000321156439 Eh/a0 ::
         :: HOMO-LUMO gap              2.079937180904 eV    ::
         ::.................................................::
         :: SCC energy              -144.820504718025 Eh    ::
         :: -> isotropic ES            0.074184368711 Eh    ::
         :: -> anisotropic ES          0.004656504079 Eh    ::
         :: -> anisotropic XC          0.102395408657 Eh    ::
         :: -> dispersion             -0.126189008102 Eh    ::
         :: -> Gsolv                  -0.064408141952 Eh    ::
         ::    -> Gelec               -0.012584583288 Eh    ::
         ::    -> Gsasa               -0.055714577907 Eh    ::
         ::    -> Ghb                  0.000000000000 Eh    ::
         ::    -> Gshift               0.003891019244 Eh    ::
         :: repulsion energy           2.086422732592 Eh    ::
         :: add. restraining           0.000000000000 Eh    ::
         :: total charge               0.000000000000 e     ::
         :::::::::::::::::::::::::::::::::::::::::::::::::::::

           -------------------------------------------------
          |                Property Printout                |
           -------------------------------------------------

    * Orbital Energies and Occupations

         #    Occupation            Energy/Eh            Energy/eV
      -------------------------------------------------------------
         1        2.0000           -0.8518938             -23.1812
       ...           ...                  ...                  ...
       120        2.0000           -0.4195370             -11.4162
       121        2.0000           -0.4174179             -11.3585
       122        2.0000           -0.4142271             -11.2717
       123        2.0000           -0.4113897             -11.1945
       124        2.0000           -0.4088956             -11.1266
       125        2.0000           -0.4080873             -11.1046
       126        2.0000           -0.4060335             -11.0487
       127        2.0000           -0.3891948             -10.5905
       128        2.0000           -0.3872933             -10.5388
       129        2.0000           -0.3870750             -10.5328
       130        2.0000           -0.3842751             -10.4567
       131        2.0000           -0.3770669             -10.2605
       132        2.0000           -0.3738122             -10.1719 (HOMO)
       133                         -0.2973759              -8.0920 (LUMO)
       134                         -0.2935827              -7.9888
       135                         -0.2913061              -7.9268
       136                         -0.2830542              -7.7023
       137                         -0.2797548              -7.6125
       138                         -0.2774465              -7.5497
       139                         -0.2329093              -6.3378
       140                         -0.2312240              -6.2919
       141                         -0.2305192              -6.2727
       142                         -0.2198847              -5.9834
       143                         -0.2187875              -5.9535
       ...                                ...                  ...
       264                          0.6614601              17.9992
      -------------------------------------------------------------
                  HL-Gap            0.0764363 Eh            2.0799 eV
             Fermi-level           -0.3355941 Eh           -9.1320 eV

     #   Z          covCN         q      C6AA      α(0)
     1   6 C        3.803    -0.062    21.692     6.631
     2   6 C        3.804    -0.062    21.683     6.629
     3   6 C        3.805    -0.061    21.675     6.628
     4   6 C        3.805    -0.061    21.675     6.628
     5   6 C        3.806    -0.062    21.685     6.629
     6   6 C        3.805    -0.060    21.646     6.623
     7   6 C        3.807    -0.054    21.542     6.607
     8   6 C        3.805    -0.056    21.577     6.613
     9   6 C        3.809    -0.061    21.669     6.626
    10   6 C        3.809    -0.063    21.711     6.633
    11   6 C        3.806    -0.058    21.606     6.617
    12   6 C        3.810    -0.064    21.720     6.634
    13   6 C        2.929    -0.027    28.678     8.782
    14   6 C        2.926    -0.021    28.543     8.761
    15   6 C        2.925    -0.020    28.505     8.756
    16   6 C        2.992    -0.030    28.727     8.792
    17   6 C        2.991    -0.032    28.783     8.801
    18   6 C        2.992    -0.028    28.678     8.785
    19   6 C        2.993    -0.033    28.810     8.805
    20   6 C        3.000    -0.034    28.826     8.807
    21   6 C        2.998    -0.032    28.780     8.800
    22   6 C        2.856     0.081    26.191     8.388
    23   6 C        2.848     0.081    26.198     8.389
    24   6 C        2.868     0.082    26.164     8.385
    25   6 C        2.850     0.084    26.127     8.378
    26   6 C        2.870     0.082    26.174     8.386
    27   6 C        2.861     0.083    26.136     8.380
    28   6 C        2.981     0.018    27.600     8.618
[...]
    30   6 C        2.978     0.015    27.667     8.628
    31   6 C        2.979     0.015    27.671     8.629
    32   6 C        2.978     0.016    27.648     8.625
    33   6 C        2.980     0.018    27.592     8.616
    34   6 C        2.913     0.090    25.991     8.360
    35   6 C        2.912     0.088    26.039     8.368
    36   6 C        2.914     0.085    26.115     8.380
    37   6 C        3.815     0.060    19.565     6.295
    38   6 C        3.814     0.046    19.788     6.331
    39   6 C        3.830     0.065    19.478     6.280
    40   6 C        3.834     0.063    19.505     6.283
    41   6 C        3.815     0.052    19.695     6.316
    42   6 C        3.822     0.063    19.501     6.284
    43  35 Br       1.060    -0.188   190.256    22.240
    44  35 Br       1.058    -0.191   190.353    22.246
    45  35 Br       1.070    -0.186   190.216    22.238
    46   7 N        1.840    -0.249    27.347     7.750
    47   7 N        1.832    -0.251    27.382     7.754
    48   7 N        1.837    -0.261    27.628     7.789
    49   7 N        1.832    -0.256    27.499     7.771
    50   7 N        1.835    -0.256    27.519     7.774
    51   7 N        1.838    -0.244    27.216     7.731
    52   1 H        0.924     0.041     2.429     2.437
    53   1 H        0.924     0.047     2.361     2.403
    54   1 H        0.924     0.042     2.424     2.435
    55   1 H        0.924     0.041     2.433     2.439
    56   1 H        0.924     0.040     2.452     2.449
    57   1 H        0.924     0.043     2.413     2.429
    58   1 H        0.924     0.043     2.409     2.427
    59   1 H        0.924     0.039     2.463     2.454
    60   1 H        0.924     0.042     2.422     2.434
    61   1 H        0.924     0.044     2.398     2.421
    62   1 H        0.924     0.043     2.405     2.425
    63   1 H        0.924     0.035     2.517     2.481
    64   1 H        0.924     0.036     2.508     2.476
    65   1 H        0.924     0.043     2.403     2.424
    66   1 H        0.924     0.040     2.450     2.448
    67   1 H        0.924     0.033     2.548     2.496
    68   1 H        0.924     0.041     2.438     2.442
    69   1 H        0.924     0.050     2.316     2.380
    70   1 H        0.924     0.052     2.293     2.368
    71   1 H        0.924     0.044     2.403     2.424
    72   1 H        0.924     0.040     2.455     2.450
    73   1 H        0.924     0.033     2.550     2.497
    74   1 H        0.924     0.056     2.243     2.342
    75   1 H        0.924     0.040     2.442     2.444
    76   1 H        0.926     0.072     2.065     2.247
    77   1 H        0.926     0.094     1.845     2.124
    78   1 H        0.926     0.094     1.836     2.119
    79   1 H        0.926     0.071     2.078     2.255
    80   1 H        0.926     0.067     2.116     2.275
    81   1 H        0.926     0.082     1.956     2.187
    82   1 H        0.926     0.066     2.130     2.282
    83   1 H        0.926     0.058     2.224     2.332
    84   1 H        0.926     0.060     2.204     2.322
    85   1 H        0.923     0.011     2.872     2.650
    86   1 H        0.923     0.009     2.907     2.666
    87   1 H        0.923     0.009     2.900     2.663
    88   1 H        0.923     0.009     2.915     2.670
    89   1 H        0.923     0.009     2.903     2.664
    90   1 H        0.923    -0.003     3.105     2.756
    91   1 H        0.922    -0.000     3.066     2.738
    92   1 H        0.924     0.060     2.200     2.320
    93   1 H        0.923     0.013     2.845     2.638
    94   1 H        0.923     0.019     2.749     2.593
    95   1 H        0.924     0.051     2.305     2.374
    96   1 H        0.922     0.000     3.058     2.735

 Mol. C6AA /au·bohr⁶  :     123089.465661
 Mol. C8AA /au·bohr⁸  :    3378958.613383
 Mol. α(0) /au        :        546.856593


Wiberg/Mayer (AO) data.
largest (>0.10) Wiberg bond orders for each atom

 ---------------------------------------------------------------------------
     #   Z sym  total        # sym  WBO       # sym  WBO       # sym  WBO
 ---------------------------------------------------------------------------
     1   6 C    3.996 --     7 C    1.011     2 C    1.005    53 H    0.978
                            52 H    0.977
     2   6 C    3.995 --     1 C    1.005     8 C    1.004    54 H    0.980
                            55 H    0.979
     3   6 C    3.996 --     4 C    1.009     9 C    1.008    56 H    0.977
                            57 H    0.976
     4   6 C    3.996 --     3 C    1.009    10 C    1.008    59 H    0.977
                            58 H    0.976
     5   6 C    3.996 --     6 C    1.009    11 C    1.008    61 H    0.976
                            60 H    0.975
     6   6 C    3.996 --     5 C    1.009    12 C    1.008    63 H    0.977
                            62 H    0.975
     7   6 C    3.990 --     1 C    1.011    64 H    0.976    65 H    0.975
                            37 C    0.963
     8   6 C    3.993 --     2 C    1.004    66 H    0.977    67 H    0.977
                            38 C    0.969
     9   6 C    3.991 --     3 C    1.008    39 C    0.981    69 H    0.975
                            68 H    0.974
    10   6 C    3.991 --     4 C    1.008    40 C    0.985    70 H    0.975
                            71 H    0.973
    11   6 C    3.994 --     5 C    1.008    72 H    0.975    73 H    0.974
                            41 C    0.973
    12   6 C    3.991 --     6 C    1.008    42 C    0.982    75 H    0.974
                            74 H    0.974
    13   6 C    3.980 --    30 C    1.394    28 C    1.382    76 H    0.962
    14   6 C    3.980 --    31 C    1.387    29 C    1.387    77 H    0.958
    15   6 C    3.981 --    32 C    1.390    33 C    1.386    78 H    0.959
    16   6 C    3.978 --    34 C    1.409    28 C    1.375    79 H    0.964
    17   6 C    3.981 --    35 C    1.419    29 C    1.366    80 H    0.964
    18   6 C    3.981 --    34 C    1.431    30 C    1.353    81 H    0.962
    19   6 C    3.983 --    35 C    1.420    31 C    1.365    82 H    0.964
    20   6 C    3.983 --    36 C    1.423    32 C    1.363    83 H    0.964
    21   6 C    3.979 --    36 C    1.421    33 C    1.367    84 H    0.965
    22   6 C    3.968 --    46 N    1.854    28 C    1.069    85 H    0.937
    23   6 C    3.970 --    47 N    1.848    29 C    1.075    86 H    0.937
    24   6 C    3.967 --    48 N    1.818    30 C    1.082    87 H    0.938
    25   6 C    3.969 --    49 N    1.846    31 C    1.077    88 H    0.936
    26   6 C    3.971 --    50 N    1.831    32 C    1.074    89 H    0.937
    27   6 C    3.971 --    51 N    1.846    33 C    1.075    90 H    0.936
    28   6 C    3.989 --    13 C    1.382    16 C    1.375    22 C    1.069
    29   6 C    3.989 --    14 C    1.387    17 C    1.366    23 C    1.075
    30   6 C    3.989 --    13 C    1.394    18 C    1.353    24 C    1.082
    31   6 C    3.989 --    14 C    1.387    19 C    1.365    25 C    1.077
    32   6 C    3.989 --    15 C    1.390    20 C    1.363    26 C    1.074
    33   6 C    3.988 --    15 C    1.386    21 C    1.367    27 C    1.075
    34   6 C    3.934 --    18 C    1.431    16 C    1.409    43 Br   0.968
    35   6 C    3.932 --    19 C    1.420    17 C    1.419    44 Br   0.968
    36   6 C    3.934 --    20 C    1.423    21 C    1.421    45 Br   0.964
    37   6 C    3.978 --    46 N    1.024     7 C    0.963    91 H    0.952
                            38 C    0.943
    38   6 C    3.975 --    47 N    1.019     8 C    0.969    92 H    0.960
                            37 C    0.943
    39   6 C    3.976 --    48 N    1.035     9 C    0.981    93 H    0.953
                            40 C    0.900
    40   6 C    3.972 --    50 N    1.030    10 C    0.985    94 H    0.952
                            39 C    0.900
    41   6 C    3.972 --    49 N    1.018    11 C    0.973    95 H    0.963
                            42 C    0.921
    42   6 C    3.978 --    51 N    1.026    12 C    0.982    96 H    0.950
                            41 C    0.921
    43  35 Br   1.094 --    34 C    0.968
    44  35 Br   1.093 --    35 C    0.968
    45  35 Br   1.089 --    36 C    0.964
    46   7 N    3.079 --    22 C    1.854    37 C    1.024
    47   7 N    3.079 --    23 C    1.848    38 C    1.019
    48   7 N    3.069 --    24 C    1.818    39 C    1.035
    49   7 N    3.077 --    25 C    1.846    41 C    1.018
    50   7 N    3.069 --    26 C    1.831    40 C    1.030
    51   7 N    3.081 --    27 C    1.846    42 C    1.026
    52   1 H    0.998 --     1 C    0.977
    53   1 H    0.998 --     1 C    0.978
    54   1 H    0.998 --     2 C    0.980
    55   1 H    0.998 --     2 C    0.979
    56   1 H    0.998 --     3 C    0.977
    57   1 H    0.997 --     3 C    0.976
    58   1 H    0.997 --     4 C    0.976
    59   1 H    0.998 --     4 C    0.977
    60   1 H    0.998 --     5 C    0.975
    61   1 H    0.998 --     5 C    0.976
    62   1 H    0.997 --     6 C    0.975
    63   1 H    0.999 --     6 C    0.977
    64   1 H    0.998 --     7 C    0.976
    65   1 H    0.997 --     7 C    0.975
    66   1 H    0.997 --     8 C    0.977
    67   1 H    0.999 --     8 C    0.977
    68   1 H    0.998 --     9 C    0.974
    69   1 H    0.997 --     9 C    0.975
    70   1 H    0.997 --    10 C    0.975
    71   1 H    0.997 --    10 C    0.973
    72   1 H    0.998 --    11 C    0.975
    73   1 H    0.999 --    11 C    0.974
    74   1 H    0.997 --    12 C    0.974
    75   1 H    0.998 --    12 C    0.974
    76   1 H    0.994 --    13 C    0.962
    77   1 H    0.990 --    14 C    0.958
    78   1 H    0.990 --    15 C    0.959
    79   1 H    0.995 --    16 C    0.964
    80   1 H    0.995 --    17 C    0.964
    81   1 H    0.993 --    18 C    0.962
    82   1 H    0.995 --    19 C    0.964
    83   1 H    0.996 --    20 C    0.964
    84   1 H    0.996 --    21 C    0.965
    85   1 H    0.999 --    22 C    0.937
    86   1 H    0.999 --    23 C    0.937
    87   1 H    0.999 --    24 C    0.938
    88   1 H    0.999 --    25 C    0.936
    89   1 H    0.999 --    26 C    0.937
    90   1 H    1.000 --    27 C    0.936
    91   1 H    1.000 --    37 C    0.952
    92   1 H    0.996 --    38 C    0.960
    93   1 H    1.000 --    39 C    0.953
    94   1 H    0.999 --    40 C    0.952
    95   1 H    0.997 --    41 C    0.963
    96   1 H    1.000 --    42 C    0.950
 ---------------------------------------------------------------------------

Topologies differ in total number of bonds
Writing topology from bond orders to xtbtopo.mol

molecular dipole:
                 x           y           z       tot (Debye)
 q only:        0.529       0.535       2.586
   full:        1.092       0.004       2.309       6.491
molecular quadrupole (traceless):
                xx          xy          yy          xz          yz          zz
 q only:        3.629      24.205      18.423      -2.396       0.251     -22.052
  q+dip:        8.569      29.385      22.520      -8.523       2.623     -31.088
   full:        8.943      31.565      22.735      -9.909      -2.498     -31.678

           -------------------------------------------------
          |                Geometry Summary                 |
           -------------------------------------------------

      molecular mass/u    :      873.5590441
   center of mass at/Å    :       -0.2101585      -0.3757994      -1.2938726
  moments of inertia/u·Å² :        0.1191093E+05   0.1862193E+05   0.2375036E+05
rotational constants/cm⁻¹ :        0.1415307E-02   0.9052571E-03   0.7097842E-03

 * 90 selected distances

     #   Z          #   Z                                           value/Å
     1   6 C        2   6 C                                       1.5338773
     3   6 C        4   6 C                                       1.5256367
     5   6 C        6   6 C                                       1.5254111
     1   6 C        7   6 C                                       1.5229726
     2   6 C        8   6 C                                       1.5318136
     3   6 C        9   6 C                                       1.5247432
     4   6 C       10   6 C                                       1.5247310
     5   6 C       11   6 C                                       1.5244543
     6   6 C       12   6 C                                       1.5244818
    13   6 C       28   6 C                                       1.3922794
    16   6 C       28   6 C                                       1.3935867
    14   6 C       29   6 C                                       1.3921551
    17   6 C       29   6 C                                       1.3959282
    13   6 C       30   6 C                                       1.3906552
    18   6 C       30   6 C                                       1.3974002
    14   6 C       31   6 C                                       1.3917205
    19   6 C       31   6 C                                       1.3964349
    15   6 C       32   6 C                                       1.3912005
    20   6 C       32   6 C                                       1.3960636
    15   6 C       33   6 C                                       1.3923228
    21   6 C       33   6 C                                       1.3953875
    16   6 C       34   6 C                                       1.3842065
    18   6 C       34   6 C                                       1.3805167
    17   6 C       35   6 C                                       1.3820367
    19   6 C       35   6 C                                       1.3819381
    20   6 C       36   6 C                                       1.3800954
    21   6 C       36   6 C                                       1.3807168
     7   6 C       37   6 C                                       1.5420662
     8   6 C       38   6 C                                       1.5336861
     9   6 C       39   6 C                                       1.5271028
    10   6 C       40   6 C                                       1.5260579
    11   6 C       41   6 C                                       1.5327963
    12   6 C       42   6 C                                       1.5282604
    34   6 C       43  35 Br                                      1.9183656
    35   6 C       44  35 Br                                      1.9193189 (max)
    36   6 C       45  35 Br                                      1.9104581
    22   6 C       46   7 N                                       1.2605141
    23   6 C       47   7 N                                       1.2620022
    24   6 C       48   7 N                                       1.2651249
    39   6 C       48   7 N                                       1.4262484
    25   6 C       49   7 N                                       1.2624637
    26   6 C       50   7 N                                       1.2641107
    40   6 C       50   7 N                                       1.4303388
    27   6 C       51   7 N                                       1.2603708
    42   6 C       51   7 N                                       1.4295375
     1   6 C       52   1 H                                       1.0910227
     1   6 C       53   1 H                                       1.0904854
     2   6 C       54   1 H                                       1.0906798
     2   6 C       55   1 H                                       1.0915668
     3   6 C       56   1 H                                       1.0923531
     3   6 C       57   1 H                                       1.0914415
     4   6 C       58   1 H                                       1.0913663
     4   6 C       59   1 H                                       1.0924499
     5   6 C       60   1 H                                       1.0917162
     5   6 C       61   1 H                                       1.0917149
     6   6 C       62   1 H                                       1.0912215
     6   6 C       63   1 H                                       1.0930997
     7   6 C       64   1 H                                       1.0921058
     7   6 C       65   1 H                                       1.0910428
     8   6 C       66   1 H                                       1.0914665
     8   6 C       67   1 H                                       1.0918383
     9   6 C       68   1 H                                       1.0920582
     9   6 C       69   1 H                                       1.0912521
    10   6 C       70   1 H                                       1.0910007
    10   6 C       71   1 H                                       1.0916012
    11   6 C       72   1 H                                       1.0922165
    11   6 C       73   1 H                                       1.0924824
    12   6 C       74   1 H                                       1.0906542
    12   6 C       75   1 H                                       1.0919590
    13   6 C       76   1 H                                       1.0785434
    14   6 C       77   1 H                                       1.0771236
    15   6 C       78   1 H                                       1.0770562 (min)
    16   6 C       79   1 H                                       1.0793124
    17   6 C       80   1 H                                       1.0797363
    18   6 C       81   1 H                                       1.0782265
    19   6 C       82   1 H                                       1.0798755
    20   6 C       83   1 H                                       1.0791541
    21   6 C       84   1 H                                       1.0797390
    22   6 C       85   1 H                                       1.0999635
    23   6 C       86   1 H                                       1.0992496
    24   6 C       87   1 H                                       1.0993487
    25   6 C       88   1 H                                       1.0998447
    26   6 C       89   1 H                                       1.0999626
    27   6 C       90   1 H                                       1.1018650
    37   6 C       91   1 H                                       1.1049698
    38   6 C       92   1 H                                       1.0960252
    39   6 C       93   1 H                                       1.1041449
    40   6 C       94   1 H                                       1.1028821
    41   6 C       95   1 H                                       1.0962794
    42   6 C       96   1 H                                       1.1058633

 * 4 distinct bonds (by element types)

   Z      Z             #   av. dist./Å        max./Å        min./Å
   1 H    6 C          45     1.0915102     1.1058633     1.0770562
   6 C    6 C          33     1.4528102     1.5420662     1.3800954
   6 C    7 N           9     1.3178568     1.4303388     1.2603708
   6 C   35 Br          3     1.9160476     1.9193189     1.9104581


optimized geometry written to: xtbopt.xyz


           -------------------------------------------------
          | TOTAL ENERGY             -142.731106970103 Eh   |
          | GRADIENT NORM               0.000321156439 Eh/α |
          | HOMO-LUMO GAP               2.079937180904 eV   |
           -------------------------------------------------

------------------------------------------------------------------------
 * finished run on 2022/04/01 at 14:31:49.778     
------------------------------------------------------------------------
 total:
 * wall-time:     0 d,  0 h,  0 min, 23.146 sec
 *  cpu-time:     0 d,  0 h, 13 min, 50.157 sec
 * ratio c/w:    35.866 speedup
 SCF:
 * wall-time:     0 d,  0 h,  0 min,  0.959 sec
 *  cpu-time:     0 d,  0 h,  0 min, 34.526 sec
 * ratio c/w:    35.999 speedup
 ANC optimizer:
 * wall-time:     0 d,  0 h,  0 min, 22.111 sec
 *  cpu-time:     0 d,  0 h, 13 min, 12.902 sec
 * ratio c/w:    35.860 speedup

