      -----------------------------------------------------------      
     |                   =====================                   |     
     |                           x T B                           |     
     |                   =====================                   |     
     |                         S. Grimme                         |     
     |          Mulliken Center for Theoretical Chemistry        |     
     |                    University of Bonn                     |     
      -----------------------------------------------------------      

   * xtb version 6.4.1 (23d549d) compiled by 'conda@3c73975816cd' on 2022-01-07

   xtb is free software: you can redistribute it and/or modify it under
   the terms of the GNU Lesser General Public License as published by
   the Free Software Foundation, either version 3 of the License, or
   (at your option) any later version.
   
   xtb is distributed in the hope that it will be useful,
   but WITHOUT ANY WARRANTY; without even the implied warranty of
   MERCHANTABILITY or FITNESS FOR A PARTICULAR PURPOSE.  See the
   GNU Lesser General Public License for more details.
   
   Cite this work as:
   * C. Bannwarth, E. Caldeweyher, S. Ehlert, A. Hansen, P. Pracht,
     J. Seibert, S. Spicher, S. Grimme, WIREs Comput. Mol. Sci., 2020, 11,
     e01493. DOI: 10.1002/wcms.1493
   
   for GFN2-xTB:
   * C. Bannwarth, S. Ehlert and S. Grimme., J. Chem. Theory Comput., 2019,
     15, 1652-1671. DOI: 10.1021/acs.jctc.8b01176
   for GFN1-xTB:
   * S. Grimme, C. Bannwarth, P. Shushkov, J. Chem. Theory Comput., 2017,
     13, 1989-2009. DOI: 10.1021/acs.jctc.7b00118
   for GFN0-xTB:
   * P. Pracht, E. Caldeweyher, S. Ehlert, S. Grimme, ChemRxiv, 2019, preprint.
     DOI: 10.26434/chemrxiv.8326202.v1
   for GFN-FF:
   * S. Spicher and S. Grimme, Angew. Chem. Int. Ed., 2020, 59, 15665-15673.
     DOI: 10.1002/anie.202004239
   
   for DFT-D4:
   * E. Caldeweyher, C. Bannwarth and S. Grimme, J. Chem. Phys., 2017,
     147, 034112. DOI: 10.1063/1.4993215
   * E. Caldeweyher, S. Ehlert, A. Hansen, H. Neugebauer, S. Spicher,
     C. Bannwarth and S. Grimme, J. Chem. Phys., 2019, 150, 154122.
     DOI: 10.1063/1.5090222
   * E. Caldeweyher, J.-M. Mewes, S. Ehlert and S. Grimme, Phys. Chem. Chem. Phys.
     2020, 22, 8499-8512. DOI: 10.1039/D0CP00502A
   
   for sTDA-xTB:
   * S. Grimme and C. Bannwarth, J. Chem. Phys., 2016, 145, 054103.
     DOI: 10.1063/1.4959605
   
   in the mass-spec context:
   * V. Asgeirsson, C. Bauer and S. Grimme, Chem. Sci., 2017, 8, 4879.
     DOI: 10.1039/c7sc00601b
   * J. Koopman and S. Grimme, ACS Omega 2019, 4, 12, 15120-15133.
     DOI: 10.1021/acsomega.9b02011
   
   for metadynamics refer to:
   * S. Grimme, J. Chem. Theory Comput., 2019, 155, 2847-2862
     DOI: 10.1021/acs.jctc.9b00143
   
   for SPH calculations refer to:
   * S. Spicher and S. Grimme, J. Chem. Theory Comput., 2021, 17, 1701-1714
     DOI: 10.1021/acs.jctc.0c01306
   
   with help from (in alphabetical order)
   P. Atkinson, C. Bannwarth, F. Bohle, G. Brandenburg, E. Caldeweyher
   M. Checinski, S. Dohm, S. Ehlert, S. Ehrlich, I. Gerasimov, J. Koopman
   C. Lavigne, S. Lehtola, F. März, M. Müller, F. Musil, H. Neugebauer
   J. Pisarek, C. Plett, P. Pracht, J. Seibert, P. Shushkov, S. Spicher
   M. Stahn, M. Steiner, T. Strunk, J. Stückrath, T. Rose, and J. Unsleber
   
 * started run on 2022/04/01 at 14:49:53.187     

           -------------------------------------------------
          |                Calculation Setup                |
           -------------------------------------------------

          program call               : xtb SSJXIUAHEKJCMH-PHDIDXHHSA-N_ETKDG_MMFF.xyz --opt --gfn 2 --alpb chcl3 --cycles 10000
          coordinate file            : SSJXIUAHEKJCMH-PHDIDXHHSA-N_ETKDG_MMFF.xyz
          omp threads                :                    36
          number of atoms            :                    22
          number of electrons        :                    48
          charge                     :                     0
          spin                       :                   0.0
          first test random number   :      0.99101676523323

   ID    Z sym.   atoms
    1    6 C      1-6
    2    7 N      7, 8
    3    1 H      9-22

           -------------------------------------------------
          |                 G F N 2 - x T B                 |
           -------------------------------------------------

        Reference                      10.1021/acs.jctc.8b01176
      * Hamiltonian:
        H0-scaling (s, p, d)           1.850000    2.230000    2.230000
        zeta-weighting                 0.500000
      * Dispersion:
        s8                             2.700000
        a1                             0.520000
        a2                             5.000000
        s9                             5.000000
      * Repulsion:
        kExp                           1.500000    1.000000
        rExp                           1.000000
      * Coulomb:
        alpha                          2.000000
        third order                    shell-resolved
        anisotropic                    true
        a3                             3.000000
        a5                             4.000000
        cn-shift                       1.200000
        cn-exp                         4.000000
        max-rad                        5.000000

      * Solvation model:               ALPB
        Solvent                        chcl3
        Parameter file                 internal GFN2-xTB/ALPB
        Dielectric constant                4.8100E+00
        Reference state                gsolv [1 M gas/solution]
        Free energy shift                  3.8910E-03 Eh       2.4417E+00 kcal/mol
        Temperature                        2.9815E+02 K
        Density                            1.4900E+00 kg/L
        Solvent mass                       1.1938E+02 g/mol
        Interaction kernel             P16
        Born radius scaling (c1)           1.3274E+00
        Born radii integrator          GBOBC
        Born offset                        0.0000E+00 a0       0.0000E+00 AA
        H-bond correction              false
        Ion screening                  false
        Surface tension                    1.0000E-05 Eh       1.5569E+01 dyn/cm
        Grid points                               230 per atom

          ...................................................
          :                      SETUP                      :
          :.................................................:
          :  # basis functions                  46          :
          :  # atomic orbitals                  46          :
          :  # shells                           30          :
          :  # electrons                        48          :
          :  max. iterations                   250          :
          :  Hamiltonian                  GFN2-xTB          :
          :  restarted?                      false          :
          :  GBSA solvation                   true          :
          :  PC potential                    false          :
          :  electronic temp.          300.0000000     K    :
          :  accuracy                    1.0000000          :
          :  -> integral cutoff          0.2500000E+02      :
          :  -> integral neglect         0.1000000E-07      :
          :  -> SCF convergence          0.1000000E-05 Eh   :
          :  -> wf. convergence          0.1000000E-03 e    :
          :  Broyden damping             0.4000000          :
          ...................................................

 iter      E             dE          RMSdq      gap      omega  full diag
   1    -26.1290447 -0.261290E+02  0.279E+00   10.30       0.0  T
   2    -26.1592034 -0.301588E-01  0.155E+00   10.35       1.0  T
   3    -26.1605617 -0.135824E-02  0.613E-01   10.34       1.0  T
   4    -26.1607212 -0.159521E-03  0.110E-01   10.32       1.0  T
   5    -26.1607716 -0.504047E-04  0.456E-02   10.30       1.0  T
   6    -26.1607742 -0.259802E-05  0.190E-02   10.30       1.1  T
   7    -26.1607745 -0.252742E-06  0.289E-03   10.30       7.4  T
   8    -26.1607745 -0.203765E-07  0.162E-03   10.30      13.2  T
   9    -26.1607745 -0.231708E-08  0.207E-04   10.30     103.1  T
  10    -26.1607745 -0.289440E-10  0.565E-05   10.30     377.1  T

   *** convergence criteria satisfied after 10 iterations ***

         #    Occupation            Energy/Eh            Energy/eV
      -------------------------------------------------------------
         1        2.0000           -0.6416330             -17.4597
       ...           ...                  ...                  ...
        18        2.0000           -0.4526083             -12.3161
        19        2.0000           -0.4428245             -12.0499
        20        2.0000           -0.4231454             -11.5144
        21        2.0000           -0.4218955             -11.4804
        22        2.0000           -0.4168810             -11.3439
        23        2.0000           -0.3740275             -10.1778
        24        2.0000           -0.3664556              -9.9718 (HOMO)
        25                          0.0119865               0.3262 (LUMO)
        26                          0.0250385               0.6813
        27                          0.0698891               1.9018
        28                          0.0775356               2.1099
        29                          0.0961162               2.6155
       ...                                ...                  ...
        46                          0.2923234               7.9545
      -------------------------------------------------------------
                  HL-Gap            0.3784421 Eh           10.2979 eV
             Fermi-level           -0.1772346 Eh           -4.8228 eV

 SCC (total)                   0 d,  0 h,  0 min,  0.605 sec
 SCC setup                      ...        0 min,  0.022 sec (  3.553%)
 Dispersion                     ...        0 min,  0.008 sec (  1.353%)
 classical contributions        ...        0 min,  0.006 sec (  0.970%)
 integral evaluation            ...        0 min,  0.012 sec (  2.013%)
 iterations                     ...        0 min,  0.460 sec ( 76.042%)
 molecular gradient             ...        0 min,  0.097 sec ( 16.041%)
 printout                       ...        0 min,  0.000 sec (  0.021%)

         :::::::::::::::::::::::::::::::::::::::::::::::::::::
         ::                     SUMMARY                     ::
         :::::::::::::::::::::::::::::::::::::::::::::::::::::
         :: total energy             -25.834080286846 Eh    ::
         :: total w/o Gsasa/hb       -25.825570658304 Eh    ::
         :: gradient norm              0.021140513957 Eh/a0 ::
         :: HOMO-LUMO gap             10.297934877610 eV    ::
         ::.................................................::
         :: SCC energy               -26.160774485963 Eh    ::
         :: -> isotropic ES            0.027964411761 Eh    ::
         :: -> anisotropic ES          0.006551322840 Eh    ::
         :: -> anisotropic XC          0.019949596000 Eh    ::
         :: -> dispersion             -0.015749466155 Eh    ::
         :: -> Gsolv                  -0.011341221352 Eh    ::
         ::    -> Gelec               -0.002831592810 Eh    ::
         ::    -> Gsasa               -0.012400647785 Eh    ::
         ::    -> Ghb                  0.000000000000 Eh    ::
         ::    -> Gshift               0.003891019244 Eh    ::
         :: repulsion energy           0.326600985589 Eh    ::
         :: add. restraining           0.000000000000 Eh    ::
         :: total charge              -0.000000000000 e     ::
         :::::::::::::::::::::::::::::::::::::::::::::::::::::

      ----------------------------------------------------------- 
     |                   =====================                   |
     |                        A N C O P T                        |
     |                   =====================                   |
     |               Approximate Normal Coordinate               |
     |                Rational Function Optimizer                |
      ----------------------------------------------------------- 

          ...................................................
          :                      SETUP                      :
          :.................................................:
          :   optimization level            normal          :
          :   max. optcycles                 10000          :
          :   ANC micro-cycles                  20          :
          :   degrees of freedom                60          :
          :.................................................:
          :   RF solver                   davidson          :
          :   write xtbopt.log                true          :
          :   linear?                        false          :
          :   energy convergence         0.5000000E-05 Eh   :
          :   grad. convergence          0.1000000E-02 Eh/α :
          :   maximium RF displ.         1.0000000          :
          :   Hlow (freq-cutoff)         0.1000000E-01      :
          :   Hmax (freq-cutoff)         5.0000000          :
          :   S6 in model hess.         20.0000000          :
          ...................................................

generating ANC from model Hessian ...
Using Lindh-Hessian (1995)
 Shifting diagonal of input Hessian by    6.4013857518733543E-003
 Lowest  eigenvalues of input Hessian
    0.000000    0.000000    0.000000    0.000000    0.000000    0.000000
    0.010000    0.012944    0.015093    0.018475    0.020074    0.021552
    0.023232    0.024379    0.027671    0.030025    0.042431    0.043080
 Highest eigenvalues
    1.221914    1.249335    1.294070    1.303931    1.384264    1.384548


........................................................................
.............................. CYCLE    1 ..............................
........................................................................
   1    -26.1607745 -0.261608E+02  0.705E-06   10.30       0.0  T
   2    -26.1607745 -0.284217E-13  0.418E-06   10.30    5103.9  T
   3    -26.1607745 -0.710543E-14  0.413E-07   10.30   51641.5  T
     SCC iter.                  ...        0 min,  0.103 sec
     gradient                   ...        0 min,  0.089 sec
 * total energy  :   -25.8340803 Eh     change       -0.1016076E-10 Eh
   gradient norm :     0.0211405 Eh/α   predicted     0.0000000E+00 (-100.00%)
   displ. norm   :     0.2863961 α      lambda       -0.4442004E-02
   maximum displ.:     0.2362678 α      in ANC's #12, #21, #22, ...

........................................................................
.............................. CYCLE    2 ..............................
........................................................................
   1    -26.1686660 -0.261687E+02  0.189E-01   10.39       0.0  T
   2    -26.1686704 -0.444038E-05  0.110E-01   10.40       1.0  T
   3    -26.1686715 -0.108533E-05  0.674E-03   10.40       3.2  T
   4    -26.1686719 -0.417175E-06  0.312E-03   10.40       6.8  T
   5    -26.1686719 -0.388187E-08  0.384E-04   10.40      55.5  T
   6    -26.1686719 -0.173106E-09  0.162E-04   10.40     131.9  T
     SCC iter.                  ...        0 min,  0.223 sec
     gradient                   ...        0 min,  0.086 sec
 * total energy  :   -25.8367496 Eh     change       -0.2669269E-02 Eh
   gradient norm :     0.0113641 Eh/α   predicted    -0.2403178E-02 (  -9.97%)
   displ. norm   :     0.1530933 α      lambda       -0.7046195E-03
   maximum displ.:     0.0978869 α      in ANC's #12, #1, #3, ...

........................................................................
.............................. CYCLE    3 ..............................
........................................................................
   1    -26.1726335 -0.261726E+02  0.718E-02   10.42       0.0  T
   2    -26.1726348 -0.130335E-05  0.425E-02   10.43       1.0  T
   3    -26.1726349 -0.486691E-07  0.412E-03   10.43       5.2  T
   4    -26.1726351 -0.209680E-06  0.131E-03   10.43      16.3  T
   5    -26.1726351 -0.108858E-08  0.385E-04   10.43      55.4  T
   6    -26.1726351 -0.186649E-09  0.116E-04   10.43     184.2  T
     SCC iter.                  ...        0 min,  0.239 sec
     gradient                   ...        0 min,  0.091 sec
 * total energy  :   -25.8371903 Eh     change       -0.4407147E-03 Eh
   gradient norm :     0.0058064 Eh/α   predicted    -0.3605723E-03 ( -18.18%)
   displ. norm   :     0.1165727 α      lambda       -0.1936608E-03
   maximum displ.:     0.0849784 α      in ANC's #1, #3, #12, ...

........................................................................
.............................. CYCLE    4 ..............................
........................................................................
   1    -26.1741088 -0.261741E+02  0.342E-02   10.45       0.0  T
   2    -26.1741097 -0.924604E-06  0.196E-02   10.45       1.1  T
   3    -26.1741097  0.234955E-08  0.432E-03   10.45       4.9  T
   4    -26.1741098 -0.110058E-06  0.889E-04   10.45      24.0  T
   5    -26.1741098 -0.681410E-09  0.307E-04   10.45      69.4  T
     SCC iter.                  ...        0 min,  0.159 sec
     gradient                   ...        0 min,  0.066 sec
 * total energy  :   -25.8373241 Eh     change       -0.1338331E-03 Eh
   gradient norm :     0.0027126 Eh/α   predicted    -0.9819003E-04 ( -26.63%)
   displ. norm   :     0.1051120 α      lambda       -0.8797050E-04
   maximum displ.:     0.0885224 α      in ANC's #1, #3, #5, ...

........................................................................
.............................. CYCLE    5 ..............................
........................................................................
   1    -26.1745289 -0.261745E+02  0.297E-02   10.46       0.0  T
   2    -26.1745292 -0.318811E-06  0.168E-02   10.46       1.3  T
   3    -26.1745293 -0.320652E-07  0.223E-03   10.46       9.6  T
   4    -26.1745293 -0.274318E-07  0.788E-04   10.46      27.1  T
   5    -26.1745293 -0.501849E-09  0.249E-04   10.46      85.7  T
     SCC iter.                  ...        0 min,  0.193 sec
     gradient                   ...        0 min,  0.094 sec
 * total energy  :   -25.8373874 Eh     change       -0.6325061E-04 Eh
   gradient norm :     0.0019929 Eh/α   predicted    -0.4447163E-04 ( -29.69%)
   displ. norm   :     0.1137983 α      lambda       -0.4034068E-04
   maximum displ.:     0.1018596 α      in ANC's #1, #3, #5, ...

........................................................................
.............................. CYCLE    6 ..............................
........................................................................
   1    -26.1744132 -0.261744E+02  0.299E-02   10.47       0.0  T
   2    -26.1744134 -0.236885E-06  0.171E-02   10.47       1.2  T
   3    -26.1744135 -0.621706E-07  0.154E-03   10.47      13.9  T
   4    -26.1744135 -0.429283E-08  0.740E-04   10.47      28.8  T
   5    -26.1744135 -0.333785E-09  0.186E-04   10.47     114.8  T
     SCC iter.                  ...        0 min,  0.251 sec
     gradient                   ...        0 min,  0.095 sec
 * total energy  :   -25.8374306 Eh     change       -0.4323567E-04 Eh
   gradient norm :     0.0020033 Eh/α   predicted    -0.2028883E-04 ( -53.07%)
   displ. norm   :     0.0441956 α      lambda       -0.1991939E-04
   maximum displ.:     0.0408231 α      in ANC's #1, #7, #5, ...

........................................................................
.............................. CYCLE    7 ..............................
........................................................................
   1    -26.1743753 -0.261744E+02  0.102E-02   10.47       0.0  T
   2    -26.1743753 -0.224456E-07  0.591E-03   10.47       3.6  T
   3    -26.1743753 -0.780870E-08  0.477E-04   10.47      44.7  T
   4    -26.1743753 -0.422652E-09  0.247E-04   10.47      86.2  T
     SCC iter.                  ...        0 min,  0.151 sec
     gradient                   ...        0 min,  0.079 sec
 * total energy  :   -25.8374476 Eh     change       -0.1703972E-04 Eh
   gradient norm :     0.0012210 Eh/α   predicted    -0.9989243E-05 ( -41.38%)
   displ. norm   :     0.0695623 α      lambda       -0.1624511E-04
   maximum displ.:     0.0637722 α      in ANC's #1, #7, #21, ...

........................................................................
.............................. CYCLE    8 ..............................
........................................................................
   1    -26.1743150 -0.261743E+02  0.171E-02   10.46       0.0  T
   2    -26.1743150 -0.549453E-07  0.990E-03   10.46       2.2  T
   3    -26.1743151 -0.200694E-07  0.715E-04   10.46      29.8  T
   4    -26.1743151 -0.642967E-09  0.365E-04   10.46      58.5  T
     SCC iter.                  ...        0 min,  0.153 sec
     gradient                   ...        0 min,  0.093 sec
 * total energy  :   -25.8374636 Eh     change       -0.1599888E-04 Eh
   gradient norm :     0.0005562 Eh/α   predicted    -0.8144909E-05 ( -49.09%)
   displ. norm   :     0.0307353 α      lambda       -0.3457193E-05
   maximum displ.:     0.0299457 α      in ANC's #1, #7, #3, ...

........................................................................
.............................. CYCLE    9 ..............................
........................................................................
   1    -26.1743638 -0.261744E+02  0.692E-03   10.46       0.0  T
   2    -26.1743638 -0.140677E-07  0.395E-03   10.46       5.4  T
   3    -26.1743638 -0.332197E-08  0.344E-04   10.46      62.0  T
   4    -26.1743638 -0.752294E-09  0.171E-04   10.46     124.7  T
     SCC iter.                  ...        0 min,  0.147 sec
     gradient                   ...        0 min,  0.084 sec
 * total energy  :   -25.8374679 Eh     change       -0.4299675E-05 Eh
   gradient norm :     0.0004878 Eh/α   predicted    -0.1733666E-05 ( -59.68%)
   displ. norm   :     0.0221743 α      lambda       -0.2323790E-05
   maximum displ.:     0.0212940 α      in ANC's #1, #5, #12, ...

   *** GEOMETRY OPTIMIZATION CONVERGED AFTER 9 ITERATIONS ***

------------------------------------------------------------------------
 total energy gain   :        -0.0033876 Eh       -2.1258 kcal/mol
 total RMSD          :         0.1562250 a0        0.0827 Å
 total power (kW/mol):        -0.9882501 (step)   -3.2573 (real)
------------------------------------------------------------------------

 ANCopt (total)                0 d,  0 h,  0 min,  2.731 sec
 optimizer setup                ...        0 min,  0.000 sec (  0.003%)
 model hessian                  ...        0 min,  0.012 sec (  0.430%)
 ANC generation                 ...        0 min,  0.001 sec (  0.026%)
 coordinate transformation      ...        0 min,  0.000 sec (  0.004%)
 single point calculation       ...        0 min,  2.670 sec ( 97.768%)
 optimization log               ...        0 min,  0.012 sec (  0.445%)
 hessian update                 ...        0 min,  0.032 sec (  1.186%)
 rational function              ...        0 min,  0.003 sec (  0.114%)

================
 final structure:
================
22
 xtb: 6.4.1 (23d549d)
C         1.88128329214041    0.44173479670590   -0.31364251992277
C         1.60799311465800   -1.05722933516279   -0.36571738656354
C         0.64569367365332    1.21986562973339   -0.75156985818399
C         0.40353883082528   -1.40559132676010    0.50143673901161
C        -0.56411268523446    0.87987756721582    0.11968669060695
C        -0.84092873390416   -0.63205508543064    0.06396685286892
N        -1.72827408547308    1.60998264527749   -0.38167011628637
N        -1.94394718771455   -0.96161811242740    0.96644195985714
H         2.14549255636463    0.72700919547229    0.70730735735436
H         2.72293757317788    0.69229790667012   -0.96238336472008
H         2.48320933735103   -1.61018573127738   -0.01872913814343
H         1.40881874865626   -1.35393623008714   -1.39811939560474
H         0.39946416558954    0.98159835583786   -1.78829643738733
H         0.84012978571060    2.29362835585080   -0.69237597615843
H         0.60955771594262   -1.16141238293207    1.54551090344154
H         0.19869799004018   -2.47746805776507    0.44278081623186
H        -0.33627016535495    1.13531421981788    1.17000028627834
H        -1.07449849310041   -0.88658680536452   -0.98533458476209
H        -2.49337843921681    1.52844804046701    0.28026059269397
H        -1.50285857072156    2.59766338781351   -0.45218237130330
H        -2.05029614158546   -1.97035231520410    1.01551780697172
H        -2.81225128180425   -0.59098571845084    0.59383014371964

 Bond Distances (Angstroems)
 ---------------------------
C1-C2=1.5246         C1-C3=1.5245         C1-H9=1.0925         C1-H10=1.0918        C2-C1=1.5246         C2-C4=1.5245         
C2-H11=1.0919        C2-H12=1.0925        C3-C1=1.5245         C3-C5=1.5292         C3-H13=1.0919        C3-H14=1.0928        
C4-C2=1.5245         C4-C6=1.5292         C4-H15=1.0919        C4-H16=1.0928        C5-C3=1.5292         C5-C6=1.5381         
C5-N7=1.4628         C5-H17=1.1047        C6-C4=1.5292         C6-C5=1.5381         C6-N8=1.4628         C6-H18=1.1047        
N7-C5=1.4628         N7-H19=1.0150        N7-H20=1.0155        N8-C6=1.4628         N8-H21=1.0155        N8-H22=1.0150        
H9-C1=1.0925         H10-C1=1.0918        H11-C2=1.0919        H12-C2=1.0925        H13-C3=1.0919        H14-C3=1.0928        
H15-C4=1.0919        H16-C4=1.0928        H17-C5=1.1047        H18-C6=1.1047        H19-N7=1.0150        H20-N7=1.0155        
H21-N8=1.0155        H22-N8=1.0150        
 C  H  Rav=1.0947 sigma=0.0050  Rmin=1.0918  Rmax=1.1047    10
 C  C  Rav=1.5283 sigma=0.0048  Rmin=1.5245  Rmax=1.5381     6
 N  H  Rav=1.0152 sigma=0.0003  Rmin=1.0150  Rmax=1.0155     4
 N  C  Rav=1.4628 sigma=0.0000  Rmin=1.4628  Rmax=1.4628     2

 selected bond angles (degree)
 --------------------
C3-C1-C2=110.29                H9-C1-C2=109.39                H9-C1-C3=109.34                H10-C1-C2=110.09               
H10-C1-C3=109.69               H10-C1-H9=107.99               C4-C2-C1=110.30                H11-C2-C1=110.08               
H11-C2-C4=109.68               H12-C2-C1=109.39               H12-C2-C4=109.36               H12-C2-H11=107.99              
C5-C3-C1=111.35                H13-C3-C1=110.13               H13-C3-C5=108.30               H14-C3-C1=109.98               
H14-C3-C5=109.17               H14-C3-H13=107.82              C6-C4-C2=111.39                H15-C4-C2=110.11               
H15-C4-C6=108.30               H16-C4-C2=109.98               H16-C4-C6=109.16               H16-C4-H15=107.82              
C6-C5-C3=109.90                N7-C5-C3=108.87                N7-C5-C6=109.57                H17-C5-C3=109.09               
H17-C5-C6=107.39               H17-C5-N7=112.00               C5-C6-C4=109.90                N8-C6-C4=108.86                
N8-C6-C5=109.56                H18-C6-C4=109.10               H18-C6-C5=107.39               H18-C6-N8=112.00               
H19-N7-C5=109.65               H20-N7-C5=109.43               H20-N7-H19=106.90              H21-N8-C6=109.43               
H22-N8-C6=109.65               H22-N8-H21=106.91              

 selected dihedral angles (degree)
 ---------------------------------
C4-C2-C1-C3=303.11            C4-C2-C1-H9= 63.41            C4-C2-C1-H10=181.93           H11-C2-C1-C3=181.94           
H11-C2-C1-H9=302.24           H11-C2-C1-H10= 60.76          H12-C2-C1-C3= 63.43           H12-C2-C1-H9=183.73           
H12-C2-C1-H10=302.25          C5-C3-C1-C2= 57.67            C5-C3-C1-H9=297.34            C5-C3-C1-H10=179.09           
H13-C3-C1-C2=297.51           H13-C3-C1-H9=177.18           H13-C3-C1-H10= 58.93          H14-C3-C1-C2=178.82           
H14-C3-C1-H9= 58.49           H14-C3-C1-H10=300.24          C6-C4-C2-C1= 57.58            C6-C4-C2-H11=178.99           
C6-C4-C2-H12=297.25           H15-C4-C2-C1=297.42           H15-C4-C2-H11= 58.83          H15-C4-C2-H12=177.08          
H16-C4-C2-C1=178.74           H16-C4-C2-H11=300.15          H16-C4-C2-H12= 58.41          C6-C5-C3-C1=302.41            
C6-C5-C3-H13= 63.64           C6-C5-C3-H14=180.78           N7-C5-C3-C1=182.40            N7-C5-C3-H13=303.63           
N7-C5-C3-H14= 60.77           H17-C5-C3-C1= 59.90           H17-C5-C3-H13=181.13          H17-C5-C3-H14=298.27          
C5-C6-C4-C2=302.49            C5-C6-C4-H15= 63.72           C5-C6-C4-H16=180.86           N8-C6-C4-C2=182.50            
N8-C6-C4-H15=303.72           N8-C6-C4-H16= 60.86           H18-C6-C4-C2= 60.00           H18-C6-C4-H15=181.22          
H18-C6-C4-H16=298.36          C4-C6-C5-C3= 56.79            C4-C6-C5-N7=176.38            C4-C6-C5-H17=298.24           
N8-C6-C5-C3=176.36            N8-C6-C5-N7=295.94            N8-C6-C5-H17= 57.81           H18-C6-C5-C3=298.23           
H18-C6-C5-N7= 57.81           H18-C6-C5-H17=179.68          H19-N7-C5-C3=190.20           H19-N7-C5-C6= 69.99           
H19-N7-C5-H17=310.93          H20-N7-C5-C3=307.15           H20-N7-C5-C6=186.94           H20-N7-C5-H17= 67.88          
H21-N8-C6-C4=307.12           H21-N8-C6-C5=186.91           H21-N8-C6-H18= 67.85          H22-N8-C6-C4=190.15           
H22-N8-C6-C5= 69.94           H22-N8-C6-H18=310.88          
           -------------------------------------------------
          |                Final Singlepoint                |
           -------------------------------------------------

          ...................................................
          :                      SETUP                      :
          :.................................................:
          :  # basis functions                  46          :
          :  # atomic orbitals                  46          :
          :  # shells                           30          :
          :  # electrons                        48          :
          :  max. iterations                   250          :
          :  Hamiltonian                  GFN2-xTB          :
          :  restarted?                      false          :
          :  GBSA solvation                   true          :
          :  PC potential                    false          :
          :  electronic temp.          300.0000000     K    :
          :  accuracy                    1.0000000          :
          :  -> integral cutoff          0.2500000E+02      :
          :  -> integral neglect         0.1000000E-07      :
          :  -> SCF convergence          0.1000000E-05 Eh   :
          :  -> wf. convergence          0.1000000E-03 e    :
          :  Broyden damping             0.4000000          :
          ...................................................

 iter      E             dE          RMSdq      gap      omega  full diag
   1    -26.1743638 -0.261744E+02  0.355E-05   10.46       0.0  T
   2    -26.1743638 -0.261480E-11  0.198E-05   10.46    1079.2  T
   3    -26.1743638 -0.152767E-12  0.765E-06   10.46    2787.7  T

   *** convergence criteria satisfied after 3 iterations ***

         #    Occupation            Energy/Eh            Energy/eV
      -------------------------------------------------------------
         1        2.0000           -0.6425937             -17.4859
       ...           ...                  ...                  ...
        18        2.0000           -0.4493603             -12.2277
        19        2.0000           -0.4423437             -12.0368
        20        2.0000           -0.4250707             -11.5668
        21        2.0000           -0.4199411             -11.4272
        22        2.0000           -0.4153185             -11.3014
        23        2.0000           -0.3727010             -10.1417
        24        2.0000           -0.3654292              -9.9438 (HOMO)
        25                          0.0189586               0.5159 (LUMO)
        26                          0.0413507               1.1252
        27                          0.0765729               2.0837
        28                          0.0848109               2.3078
        29                          0.0993083               2.7023
       ...                                ...                  ...
        46                          0.3047985               8.2940
      -------------------------------------------------------------
                  HL-Gap            0.3843878 Eh           10.4597 eV
             Fermi-level           -0.1732353 Eh           -4.7140 eV

 SCC (total)                   0 d,  0 h,  0 min,  0.240 sec
 SCC setup                      ...        0 min,  0.007 sec (  3.080%)
 Dispersion                     ...        0 min,  0.007 sec (  2.976%)
 classical contributions        ...        0 min,  0.002 sec (  0.784%)
 integral evaluation            ...        0 min,  0.012 sec (  4.970%)
 iterations                     ...        0 min,  0.122 sec ( 50.708%)
 molecular gradient             ...        0 min,  0.090 sec ( 37.419%)
 printout                       ...        0 min,  0.000 sec (  0.047%)

         :::::::::::::::::::::::::::::::::::::::::::::::::::::
         ::                     SUMMARY                     ::
         :::::::::::::::::::::::::::::::::::::::::::::::::::::
         :: total energy             -25.837467928082 Eh    ::
         :: total w/o Gsasa/hb       -25.829151359091 Eh    ::
         :: gradient norm              0.000488183708 Eh/a0 ::
         :: HOMO-LUMO gap             10.459723834615 eV    ::
         ::.................................................::
         :: SCC energy               -26.174363791960 Eh    ::
         :: -> isotropic ES            0.027690180097 Eh    ::
         :: -> anisotropic ES          0.006368607650 Eh    ::
         :: -> anisotropic XC          0.019546737525 Eh    ::
         :: -> dispersion             -0.015898731708 Eh    ::
         :: -> Gsolv                  -0.011075624426 Eh    ::
         ::    -> Gelec               -0.002759055435 Eh    ::
         ::    -> Gsasa               -0.012207588234 Eh    ::
         ::    -> Ghb                  0.000000000000 Eh    ::
         ::    -> Gshift               0.003891019244 Eh    ::
         :: repulsion energy           0.336805689149 Eh    ::
         :: add. restraining           0.000000000000 Eh    ::
         :: total charge               0.000000000000 e     ::
         :::::::::::::::::::::::::::::::::::::::::::::::::::::

           -------------------------------------------------
          |                Property Printout                |
           -------------------------------------------------

    * Orbital Energies and Occupations

         #    Occupation            Energy/Eh            Energy/eV
      -------------------------------------------------------------
         1        2.0000           -0.6425937             -17.4859
       ...           ...                  ...                  ...
        12        2.0000           -0.5051170             -13.7449
        13        2.0000           -0.5044232             -13.7261
        14        2.0000           -0.4854047             -13.2085
        15        2.0000           -0.4745907             -12.9143
        16        2.0000           -0.4666749             -12.6989
        17        2.0000           -0.4589771             -12.4894
        18        2.0000           -0.4493603             -12.2277
        19        2.0000           -0.4423437             -12.0368
        20        2.0000           -0.4250707             -11.5668
        21        2.0000           -0.4199411             -11.4272
        22        2.0000           -0.4153185             -11.3014
        23        2.0000           -0.3727010             -10.1417
        24        2.0000           -0.3654292              -9.9438 (HOMO)
        25                          0.0189586               0.5159 (LUMO)
        26                          0.0413507               1.1252
        27                          0.0765729               2.0837
        28                          0.0848109               2.3078
        29                          0.0993083               2.7023
        30                          0.1068521               2.9076
        31                          0.1187801               3.2322
        32                          0.1210382               3.2936
        33                          0.1497709               4.0755
        34                          0.1764815               4.8023
        35                          0.1825304               4.9669
       ...                                ...                  ...
        46                          0.3047985               8.2940
      -------------------------------------------------------------
                  HL-Gap            0.3843878 Eh           10.4597 eV
             Fermi-level           -0.1732353 Eh           -4.7140 eV

     #   Z          covCN         q      C6AA      α(0)
     1   6 C        3.805    -0.061    21.673     6.627
     2   6 C        3.805    -0.061    21.672     6.627
     3   6 C        3.809    -0.067    21.775     6.642
     4   6 C        3.809    -0.067    21.775     6.642
     5   6 C        3.787     0.052    19.721     6.325
     6   6 C        3.786     0.052    19.721     6.325
     7   7 N        2.633    -0.373    29.628     8.084
     8   7 N        2.633    -0.373    29.628     8.084
     9   1 H        0.924     0.036     2.503     2.474
    10   1 H        0.924     0.037     2.491     2.468
    11   1 H        0.924     0.037     2.491     2.468
    12   1 H        0.924     0.036     2.503     2.474
    13   1 H        0.924     0.044     2.401     2.423
    14   1 H        0.924     0.032     2.551     2.498
    15   1 H        0.924     0.044     2.401     2.423
    16   1 H        0.924     0.032     2.551     2.498
    17   1 H        0.922     0.009     2.911     2.668
    18   1 H        0.922     0.009     2.911     2.668
    19   1 H        0.860     0.147     1.423     1.869
    20   1 H        0.860     0.145     1.439     1.879
    21   1 H        0.860     0.145     1.439     1.879
    22   1 H        0.860     0.147     1.423     1.869

 Mol. C6AA /au·bohr⁶  :       3496.556700
 Mol. C8AA /au·bohr⁸  :      73525.323197
 Mol. α(0) /au        :         87.915908


Wiberg/Mayer (AO) data.
largest (>0.10) Wiberg bond orders for each atom

 ---------------------------------------------------------------------------
     #   Z sym  total        # sym  WBO       # sym  WBO       # sym  WBO
 ---------------------------------------------------------------------------
     1   6 C    3.998 --     2 C    1.009     3 C    1.008     9 H    0.977
                            10 H    0.977
     2   6 C    3.998 --     1 C    1.009     4 C    1.008    12 H    0.977
                            11 H    0.977
     3   6 C    3.997 --     1 C    1.008     5 C    0.995    13 H    0.976
                            14 H    0.975
     4   6 C    3.997 --     2 C    1.008     6 C    0.995    15 H    0.976
                            16 H    0.975
     5   6 C    3.983 --     7 N    1.008     3 C    0.995     6 C    0.977
                            17 H    0.961
     6   6 C    3.983 --     8 N    1.008     4 C    0.995     5 C    0.977
                            18 H    0.961
     7   7 N    2.989 --     5 C    1.008    20 H    0.963    19 H    0.962
     8   7 N    2.989 --     6 C    1.008    21 H    0.963    22 H    0.962
     9   1 H    0.999 --     1 C    0.977
    10   1 H    0.998 --     1 C    0.977
    11   1 H    0.998 --     2 C    0.977
    12   1 H    0.999 --     2 C    0.977
    13   1 H    0.998 --     3 C    0.976
    14   1 H    0.999 --     3 C    0.975
    15   1 H    0.998 --     4 C    0.976
    16   1 H    0.999 --     4 C    0.975
    17   1 H    1.000 --     5 C    0.961
    18   1 H    1.000 --     6 C    0.961
    19   1 H    0.978 --     7 N    0.962
    20   1 H    0.979 --     7 N    0.963
    21   1 H    0.979 --     8 N    0.963
    22   1 H    0.978 --     8 N    0.962
 ---------------------------------------------------------------------------

Topologies differ in total number of bonds
Writing topology from bond orders to xtbtopo.mol

molecular dipole:
                 x           y           z       tot (Debye)
 q only:        0.199      -0.035      -0.035
   full:        0.084      -0.015      -0.015       0.220
molecular quadrupole (traceless):
                xx          xy          yy          xz          yz          zz
 q only:        1.080       0.173       1.806      -0.675       0.347      -2.886
  q+dip:        0.151       1.220       4.082      -0.258       2.811      -4.233
   full:        1.008       0.981       4.355      -0.745       2.171      -5.363

           -------------------------------------------------
          |                Geometry Summary                 |
           -------------------------------------------------

      molecular mass/u    :      114.1889923
   center of mass at/Å    :       -0.1161008       0.0204837      -0.0115061
  moments of inertia/u·Å² :        0.1856084E+03   0.2579755E+03   0.4101818E+03
rotational constants/cm⁻¹ :        0.9082363E-01   0.6534585E-01   0.4109795E-01

 * 22 selected distances

     #   Z          #   Z                                           value/Å
     1   6 C        2   6 C                                       1.5245631
     1   6 C        3   6 C                                       1.5244506
     2   6 C        4   6 C                                       1.5244745
     3   6 C        5   6 C                                       1.5291538
     4   6 C        6   6 C                                       1.5291951
     5   6 C        6   6 C                                       1.5380742 (max)
     5   6 C        7   7 N                                       1.4627658
     6   6 C        8   7 N                                       1.4627791
     1   6 C        9   1 H                                       1.0924865
     1   6 C       10   1 H                                       1.0918006
     2   6 C       11   1 H                                       1.0918631
     2   6 C       12   1 H                                       1.0925014
     3   6 C       13   1 H                                       1.0918802
     3   6 C       14   1 H                                       1.0928292
     4   6 C       15   1 H                                       1.0918599
     4   6 C       16   1 H                                       1.0928495
     5   6 C       17   1 H                                       1.1046804
     6   6 C       18   1 H                                       1.1047057
     7   7 N       19   1 H                                       1.0149802
     7   7 N       20   1 H                                       1.0155281
     8   7 N       21   1 H                                       1.0155113
     8   7 N       22   1 H                                       1.0149679 (min)

 * 4 distinct bonds (by element types)

   Z      Z             #   av. dist./Å        max./Å        min./Å
   1 H    6 C          10     1.0947456     1.1047057     1.0918006
   6 C    6 C           6     1.5283186     1.5380742     1.5244506
   1 H    7 N           4     1.0152469     1.0155281     1.0149679
   6 C    7 N           2     1.4627725     1.4627791     1.4627658


optimized geometry written to: xtbopt.xyz


           -------------------------------------------------
          | TOTAL ENERGY              -25.837467928082 Eh   |
          | GRADIENT NORM               0.000488183708 Eh/α |
          | HOMO-LUMO GAP              10.459723834615 eV   |
           -------------------------------------------------

------------------------------------------------------------------------
 * finished run on 2022/04/01 at 14:49:56.825     
------------------------------------------------------------------------
 total:
 * wall-time:     0 d,  0 h,  0 min,  3.638 sec
 *  cpu-time:     0 d,  0 h,  2 min,  7.654 sec
 * ratio c/w:    35.087 speedup
 SCF:
 * wall-time:     0 d,  0 h,  0 min,  0.605 sec
 *  cpu-time:     0 d,  0 h,  0 min, 21.533 sec
 * ratio c/w:    35.569 speedup
 ANC optimizer:
 * wall-time:     0 d,  0 h,  0 min,  2.972 sec
 *  cpu-time:     0 d,  0 h,  1 min, 44.027 sec
 * ratio c/w:    35.002 speedup

