      -----------------------------------------------------------      
     |                   =====================                   |     
     |                           x T B                           |     
     |                   =====================                   |     
     |                         S. Grimme                         |     
     |          Mulliken Center for Theoretical Chemistry        |     
     |                    University of Bonn                     |     
      -----------------------------------------------------------      

   * xtb version 6.4.1 (23d549d) compiled by 'conda@3c73975816cd' on 2022-01-07

   xtb is free software: you can redistribute it and/or modify it under
   the terms of the GNU Lesser General Public License as published by
   the Free Software Foundation, either version 3 of the License, or
   (at your option) any later version.
   
   xtb is distributed in the hope that it will be useful,
   but WITHOUT ANY WARRANTY; without even the implied warranty of
   MERCHANTABILITY or FITNESS FOR A PARTICULAR PURPOSE.  See the
   GNU Lesser General Public License for more details.
   
   Cite this work as:
   * C. Bannwarth, E. Caldeweyher, S. Ehlert, A. Hansen, P. Pracht,
     J. Seibert, S. Spicher, S. Grimme, WIREs Comput. Mol. Sci., 2020, 11,
     e01493. DOI: 10.1002/wcms.1493
   
   for GFN2-xTB:
   * C. Bannwarth, S. Ehlert and S. Grimme., J. Chem. Theory Comput., 2019,
     15, 1652-1671. DOI: 10.1021/acs.jctc.8b01176
   for GFN1-xTB:
   * S. Grimme, C. Bannwarth, P. Shushkov, J. Chem. Theory Comput., 2017,
     13, 1989-2009. DOI: 10.1021/acs.jctc.7b00118
   for GFN0-xTB:
   * P. Pracht, E. Caldeweyher, S. Ehlert, S. Grimme, ChemRxiv, 2019, preprint.
     DOI: 10.26434/chemrxiv.8326202.v1
   for GFN-FF:
   * S. Spicher and S. Grimme, Angew. Chem. Int. Ed., 2020, 59, 15665-15673.
     DOI: 10.1002/anie.202004239
   
   for DFT-D4:
   * E. Caldeweyher, C. Bannwarth and S. Grimme, J. Chem. Phys., 2017,
     147, 034112. DOI: 10.1063/1.4993215
   * E. Caldeweyher, S. Ehlert, A. Hansen, H. Neugebauer, S. Spicher,
     C. Bannwarth and S. Grimme, J. Chem. Phys., 2019, 150, 154122.
     DOI: 10.1063/1.5090222
   * E. Caldeweyher, J.-M. Mewes, S. Ehlert and S. Grimme, Phys. Chem. Chem. Phys.
     2020, 22, 8499-8512. DOI: 10.1039/D0CP00502A
   
   for sTDA-xTB:
   * S. Grimme and C. Bannwarth, J. Chem. Phys., 2016, 145, 054103.
     DOI: 10.1063/1.4959605
   
   in the mass-spec context:
   * V. Asgeirsson, C. Bauer and S. Grimme, Chem. Sci., 2017, 8, 4879.
     DOI: 10.1039/c7sc00601b
   * J. Koopman and S. Grimme, ACS Omega 2019, 4, 12, 15120-15133.
     DOI: 10.1021/acsomega.9b02011
   
   for metadynamics refer to:
   * S. Grimme, J. Chem. Theory Comput., 2019, 155, 2847-2862
     DOI: 10.1021/acs.jctc.9b00143
   
   for SPH calculations refer to:
   * S. Spicher and S. Grimme, J. Chem. Theory Comput., 2021, 17, 1701-1714
     DOI: 10.1021/acs.jctc.0c01306
   
   with help from (in alphabetical order)
   P. Atkinson, C. Bannwarth, F. Bohle, G. Brandenburg, E. Caldeweyher
   M. Checinski, S. Dohm, S. Ehlert, S. Ehrlich, I. Gerasimov, J. Koopman
   C. Lavigne, S. Lehtola, F. März, M. Müller, F. Musil, H. Neugebauer
   J. Pisarek, C. Plett, P. Pracht, J. Seibert, P. Shushkov, S. Spicher
   M. Stahn, M. Steiner, T. Strunk, J. Stückrath, T. Rose, and J. Unsleber
   
 * started run on 2022/04/01 at 14:29:14.370     

           -------------------------------------------------
          |                Calculation Setup                |
           -------------------------------------------------

          program call               : xtb RUQARIUHZQLYSV-WZHDYRIBSA-N_ETKDG_MMFF.xyz --opt --gfn 2 --alpb chcl3 --cycles 10000
          coordinate file            : RUQARIUHZQLYSV-WZHDYRIBSA-N_ETKDG_MMFF.xyz
          omp threads                :                    36
          number of atoms            :                    64
          number of electrons        :                   176
          charge                     :                     0
          spin                       :                   0.0
          first test random number   :      0.11977637233012

   ID    Z sym.   atoms
    1    6 C      1-28
    2   35 Br     29, 30
    3    7 N      31-34
    4    1 H      35-64

           -------------------------------------------------
          |                 G F N 2 - x T B                 |
           -------------------------------------------------

        Reference                      10.1021/acs.jctc.8b01176
      * Hamiltonian:
        H0-scaling (s, p, d)           1.850000    2.230000    2.230000
        zeta-weighting                 0.500000
      * Dispersion:
        s8                             2.700000
        a1                             0.520000
        a2                             5.000000
        s9                             5.000000
      * Repulsion:
        kExp                           1.500000    1.000000
        rExp                           1.000000
      * Coulomb:
        alpha                          2.000000
        third order                    shell-resolved
        anisotropic                    true
        a3                             3.000000
        a5                             4.000000
        cn-shift                       1.200000
        cn-exp                         4.000000
        max-rad                        5.000000

      * Solvation model:               ALPB
        Solvent                        chcl3
        Parameter file                 internal GFN2-xTB/ALPB
        Dielectric constant                4.8100E+00
        Reference state                gsolv [1 M gas/solution]
        Free energy shift                  3.8910E-03 Eh       2.4417E+00 kcal/mol
        Temperature                        2.9815E+02 K
        Density                            1.4900E+00 kg/L
        Solvent mass                       1.1938E+02 g/mol
        Interaction kernel             P16
        Born radius scaling (c1)           1.3274E+00
        Born radii integrator          GBOBC
        Born offset                        0.0000E+00 a0       0.0000E+00 AA
        H-bond correction              false
        Ion screening                  false
        Surface tension                    1.0000E-05 Eh       1.5569E+01 dyn/cm
        Grid points                               230 per atom

          ...................................................
          :                      SETUP                      :
          :.................................................:
          :  # basis functions                 178          :
          :  # atomic orbitals                 176          :
          :  # shells                          100          :
          :  # electrons                       176          :
          :  max. iterations                   250          :
          :  Hamiltonian                  GFN2-xTB          :
          :  restarted?                      false          :
          :  GBSA solvation                   true          :
          :  PC potential                    false          :
          :  electronic temp.          300.0000000     K    :
          :  accuracy                    1.0000000          :
          :  -> integral cutoff          0.2500000E+02      :
          :  -> integral neglect         0.1000000E-07      :
          :  -> SCF convergence          0.1000000E-05 Eh   :
          :  -> wf. convergence          0.1000000E-03 e    :
          :  Broyden damping             0.4000000          :
          ...................................................

 iter      E             dE          RMSdq      gap      omega  full diag
   1    -96.3590716 -0.963591E+02  0.411E+00    2.70       0.0  T
   2    -96.4221660 -0.630943E-01  0.254E+00    2.54       1.0  T
   3    -96.4045819  0.175840E-01  0.891E-01    2.29       1.0  T
   4    -96.4327387 -0.281567E-01  0.366E-01    2.27       1.0  T
   5    -96.4341594 -0.142074E-02  0.199E-01    2.24       1.0  T
   6    -96.4344404 -0.280981E-03  0.123E-01    2.25       1.0  T
   7    -96.4345875 -0.147173E-03  0.879E-02    2.25       1.0  T
   8    -96.4346607 -0.731372E-04  0.517E-02    2.25       1.0  T
   9    -96.4346948 -0.341295E-04  0.182E-02    2.25       1.0  T
  10    -96.4346998 -0.502046E-05  0.741E-03    2.25       1.7  T
  11    -96.4347003 -0.430699E-06  0.415E-03    2.25       3.0  T
  12    -96.4347005 -0.282301E-06  0.106E-03    2.25      11.8  T
  13    -96.4347006 -0.130510E-07  0.739E-04    2.25      16.9  T
  14    -96.4347006 -0.261568E-08  0.420E-04    2.25      29.7  T

   *** convergence criteria satisfied after 14 iterations ***

         #    Occupation            Energy/Eh            Energy/eV
      -------------------------------------------------------------
         1        2.0000           -0.8482387             -23.0818
       ...           ...                  ...                  ...
        82        2.0000           -0.4124049             -11.2221
        83        2.0000           -0.4087349             -11.1222
        84        2.0000           -0.4080590             -11.1039
        85        2.0000           -0.3947407             -10.7414
        86        2.0000           -0.3905063             -10.6262
        87        2.0000           -0.3858485             -10.4995
        88        2.0000           -0.3825261             -10.4091 (HOMO)
        89                         -0.3000129              -8.1638 (LUMO)
        90                         -0.2948072              -8.0221
        91                         -0.2837711              -7.7218
        92                         -0.2815051              -7.6601
        93                         -0.2411311              -6.5615
       ...                                ...                  ...
       176                          0.6211412              16.9021
      -------------------------------------------------------------
                  HL-Gap            0.0825132 Eh            2.2453 eV
             Fermi-level           -0.3412695 Eh           -9.2864 eV

 SCC (total)                   0 d,  0 h,  0 min,  0.613 sec
 SCC setup                      ...        0 min,  0.033 sec (  5.425%)
 Dispersion                     ...        0 min,  0.013 sec (  2.062%)
 classical contributions        ...        0 min,  0.008 sec (  1.279%)
 integral evaluation            ...        0 min,  0.031 sec (  5.007%)
 iterations                     ...        0 min,  0.457 sec ( 74.423%)
 molecular gradient             ...        0 min,  0.072 sec ( 11.724%)
 printout                       ...        0 min,  0.000 sec (  0.071%)

         :::::::::::::::::::::::::::::::::::::::::::::::::::::
         ::                     SUMMARY                     ::
         :::::::::::::::::::::::::::::::::::::::::::::::::::::
         :: total energy             -95.131250733484 Eh    ::
         :: total w/o Gsasa/hb       -95.095953631672 Eh    ::
         :: gradient norm              0.106127594609 Eh/a0 ::
         :: HOMO-LUMO gap              2.245297902117 eV    ::
         ::.................................................::
         :: SCC energy               -96.434700562776 Eh    ::
         :: -> isotropic ES            0.051404097356 Eh    ::
         :: -> anisotropic ES          0.005580580083 Eh    ::
         :: -> anisotropic XC          0.069782254461 Eh    ::
         :: -> dispersion             -0.078053583383 Eh    ::
         :: -> Gsolv                  -0.044357881548 Eh    ::
         ::    -> Gelec               -0.009060779736 Eh    ::
         ::    -> Gsasa               -0.039188121056 Eh    ::
         ::    -> Ghb                  0.000000000000 Eh    ::
         ::    -> Gshift               0.003891019244 Eh    ::
         :: repulsion energy           1.303214889232 Eh    ::
         :: add. restraining           0.000000000000 Eh    ::
         :: total charge               0.000000000000 e     ::
         :::::::::::::::::::::::::::::::::::::::::::::::::::::

      ----------------------------------------------------------- 
     |                   =====================                   |
     |                        A N C O P T                        |
     |                   =====================                   |
     |               Approximate Normal Coordinate               |
     |                Rational Function Optimizer                |
      ----------------------------------------------------------- 

          ...................................................
          :                      SETUP                      :
          :.................................................:
          :   optimization level            normal          :
          :   max. optcycles                 10000          :
          :   ANC micro-cycles                  20          :
          :   degrees of freedom               186          :
          :.................................................:
          :   RF solver                   davidson          :
          :   write xtbopt.log                true          :
          :   linear?                        false          :
          :   energy convergence         0.5000000E-05 Eh   :
          :   grad. convergence          0.1000000E-02 Eh/α :
          :   maximium RF displ.         1.0000000          :
          :   Hlow (freq-cutoff)         0.1000000E-01      :
          :   Hmax (freq-cutoff)         5.0000000          :
          :   S6 in model hess.         20.0000000          :
          ...................................................

generating ANC from model Hessian ...
Using Lindh-Hessian (1995)
 Shifting diagonal of input Hessian by    9.8040842260254009E-003
 Lowest  eigenvalues of input Hessian
    0.000000    0.000000    0.000000    0.000000    0.000000    0.000000
    0.010000    0.010455    0.010560    0.010708    0.011074    0.011459
    0.011605    0.012057    0.012576    0.013315    0.013986    0.014174
 Highest eigenvalues
    1.905015    1.905227    2.005497    2.006344    2.030967    2.033555


........................................................................
.............................. CYCLE    1 ..............................
........................................................................
   1    -96.4347006 -0.964347E+02  0.185E-04    2.25       0.0  T
   2    -96.4347006 -0.143615E-09  0.142E-04    2.25      88.2  T
   3    -96.4347006 -0.247837E-10  0.106E-04    2.25     117.6  T
     SCC iter.                  ...        0 min,  0.108 sec
     gradient                   ...        0 min,  0.088 sec
 * total energy  :   -95.1312507 Eh     change       -0.2226287E-08 Eh
   gradient norm :     0.1061248 Eh/α   predicted     0.0000000E+00 (-100.00%)
   displ. norm   :     0.3111750 α      lambda       -0.1685611E-01
   maximum displ.:     0.1035075 α      in ANC's #17, #30, #25, ...

........................................................................
.............................. CYCLE    2 ..............................
........................................................................
   1    -96.4998498 -0.964998E+02  0.194E-01    2.24       0.0  T
   2    -96.4999145 -0.646497E-04  0.113E-01    2.26       1.0  T
   3    -96.4998806  0.339045E-04  0.371E-02    2.25       1.0  T
   4    -96.4999306 -0.500442E-04  0.103E-02    2.26       1.2  T
   5    -96.4999320 -0.135424E-05  0.461E-03    2.26       2.7  T
   6    -96.4999322 -0.202266E-06  0.266E-03    2.26       4.7  T
   7    -96.4999322 -0.300324E-07  0.169E-03    2.26       7.4  T
   8    -96.4999323 -0.314456E-07  0.112E-03    2.26      11.2  T
   9    -96.4999323 -0.115281E-07  0.599E-04    2.26      20.9  T
  10    -96.4999323 -0.477011E-08  0.226E-04    2.26      55.2  T
     SCC iter.                  ...        0 min,  0.502 sec
     gradient                   ...        0 min,  0.091 sec
 * total energy  :   -95.1427517 Eh     change       -0.1150101E-01 Eh
   gradient norm :     0.0421105 Eh/α   predicted    -0.9249465E-02 ( -19.58%)
   displ. norm   :     0.3380832 α      lambda       -0.5602241E-02
   maximum displ.:     0.1374541 α      in ANC's #17, #25, #30, ...

........................................................................
.............................. CYCLE    3 ..............................
........................................................................
   1    -96.5354707 -0.965355E+02  0.144E-01    2.22       0.0  T
   2    -96.5355311 -0.604612E-04  0.851E-02    2.23       1.0  T
   3    -96.5355078  0.233122E-04  0.335E-02    2.22       1.0  T
   4    -96.5355463 -0.384677E-04  0.100E-02    2.23       1.2  T
   5    -96.5355475 -0.122051E-05  0.481E-03    2.23       2.6  T
   6    -96.5355477 -0.218800E-06  0.296E-03    2.23       4.2  T
   7    -96.5355478 -0.369022E-07  0.213E-03    2.23       5.9  T
   8    -96.5355478 -0.538544E-07  0.126E-03    2.23       9.9  T
   9    -96.5355478 -0.173196E-07  0.460E-04    2.23      27.2  T
  10    -96.5355478 -0.309564E-08  0.217E-04    2.23      57.5  T
     SCC iter.                  ...        0 min,  0.389 sec
     gradient                   ...        0 min,  0.087 sec
 * total energy  :   -95.1462642 Eh     change       -0.3512494E-02 Eh
   gradient norm :     0.0148832 Eh/α   predicted    -0.3125247E-02 ( -11.02%)
   displ. norm   :     0.2706849 α      lambda       -0.1370791E-02
   maximum displ.:     0.1149439 α      in ANC's #25, #6, #17, ...

........................................................................
.............................. CYCLE    4 ..............................
........................................................................
   1    -96.5404952 -0.965405E+02  0.103E-01    2.21       0.0  T
   2    -96.5405163 -0.211254E-04  0.587E-02    2.22       1.0  T
   3    -96.5405062  0.101523E-04  0.207E-02    2.22       1.0  T
   4    -96.5405232 -0.170223E-04  0.569E-03    2.22       2.2  T
   5    -96.5405234 -0.241843E-06  0.262E-03    2.22       4.8  T
   6    -96.5405235 -0.781933E-07  0.138E-03    2.22       9.1  T
   7    -96.5405235 -0.919312E-08  0.109E-03    2.22      11.5  T
   8    -96.5405235 -0.120850E-07  0.639E-04    2.22      19.6  T
   9    -96.5405235 -0.457544E-08  0.208E-04    2.22      60.0  T
     SCC iter.                  ...        0 min,  0.370 sec
     gradient                   ...        0 min,  0.077 sec
 * total energy  :   -95.1472301 Eh     change       -0.9658628E-03 Eh
   gradient norm :     0.0085802 Eh/α   predicted    -0.7356713E-03 ( -23.83%)
   displ. norm   :     0.3126438 α      lambda       -0.8098069E-03
   maximum displ.:     0.1801942 α      in ANC's #6, #25, #19, ...

........................................................................
.............................. CYCLE    5 ..............................
........................................................................
   1    -96.5396110 -0.965396E+02  0.112E-01    2.22       0.0  T
   2    -96.5396257 -0.147435E-04  0.632E-02    2.22       1.0  T
   3    -96.5396215  0.417129E-05  0.150E-02    2.22       1.0  T
   4    -96.5396303 -0.879161E-05  0.511E-03    2.22       2.4  T
   5    -96.5396305 -0.174830E-06  0.177E-03    2.22       7.0  T
   6    -96.5396306 -0.529886E-07  0.834E-04    2.22      15.0  T
   7    -96.5396306 -0.365027E-08  0.641E-04    2.22      19.5  T
     SCC iter.                  ...        0 min,  0.310 sec
     gradient                   ...        0 min,  0.080 sec
 * total energy  :   -95.1478036 Eh     change       -0.5734612E-03 Eh
   gradient norm :     0.0074915 Eh/α   predicted    -0.4444844E-03 ( -22.49%)
   displ. norm   :     0.3132318 α      lambda       -0.5147160E-03
   maximum displ.:     0.2097695 α      in ANC's #6, #25, #5, ...

........................................................................
.............................. CYCLE    6 ..............................
........................................................................
   1    -96.5376731 -0.965377E+02  0.101E-01    2.23       0.0  T
   2    -96.5376836 -0.105142E-04  0.565E-02    2.23       1.0  T
   3    -96.5376835  0.114816E-06  0.106E-02    2.23       1.2  T
   4    -96.5376868 -0.330951E-05  0.469E-03    2.23       2.7  T
   5    -96.5376870 -0.182978E-06  0.157E-03    2.23       8.0  T
   6    -96.5376870 -0.275485E-07  0.104E-03    2.23      12.1  T
   7    -96.5376870 -0.446961E-08  0.707E-04    2.23      17.7  T
   8    -96.5376870 -0.553916E-08  0.294E-04    2.23      42.6  T
     SCC iter.                  ...        0 min,  0.468 sec
     gradient                   ...        0 min,  0.101 sec
 * total energy  :   -95.1481923 Eh     change       -0.3887646E-03 Eh
   gradient norm :     0.0072881 Eh/α   predicted    -0.2826214E-03 ( -27.30%)
   displ. norm   :     0.2986974 α      lambda       -0.4094341E-03
   maximum displ.:     0.2060881 α      in ANC's #6, #5, #9, ...

........................................................................
.............................. CYCLE    7 ..............................
........................................................................
   1    -96.5372985 -0.965373E+02  0.900E-02    2.24       0.0  T
   2    -96.5373062 -0.764509E-05  0.498E-02    2.24       1.0  T
   3    -96.5373077 -0.151462E-05  0.732E-03    2.24       1.7  T
   4    -96.5373082 -0.521578E-06  0.419E-03    2.24       3.0  T
   5    -96.5373085 -0.283288E-06  0.172E-03    2.24       7.2  T
   6    -96.5373085 -0.216618E-07  0.124E-03    2.24      10.1  T
   7    -96.5373085 -0.881472E-08  0.783E-04    2.24      16.0  T
   8    -96.5373085 -0.659325E-08  0.341E-04    2.24      36.7  T
     SCC iter.                  ...        0 min,  0.324 sec
     gradient                   ...        0 min,  0.105 sec
 * total energy  :   -95.1485152 Eh     change       -0.3228487E-03 Eh
   gradient norm :     0.0058682 Eh/α   predicted    -0.2229834E-03 ( -30.93%)
   displ. norm   :     0.3140656 α      lambda       -0.3580382E-03
   maximum displ.:     0.2163860 α      in ANC's #6, #5, #9, ...

........................................................................
.............................. CYCLE    8 ..............................
........................................................................
   1    -96.5382788 -0.965383E+02  0.956E-02    2.25       0.0  T
   2    -96.5382867 -0.783577E-05  0.530E-02    2.25       1.0  T
   3    -96.5382881 -0.146822E-05  0.767E-03    2.25       1.6  T
   4    -96.5382888 -0.685629E-06  0.436E-03    2.25       2.9  T
   5    -96.5382891 -0.298022E-06  0.175E-03    2.25       7.1  T
   6    -96.5382891 -0.208163E-07  0.129E-03    2.25       9.7  T
   7    -96.5382891 -0.991770E-08  0.815E-04    2.25      15.3  T
   8    -96.5382891 -0.718038E-08  0.336E-04    2.25      37.2  T
     SCC iter.                  ...        0 min,  0.407 sec
     gradient                   ...        0 min,  0.101 sec
 * total energy  :   -95.1487926 Eh     change       -0.2774423E-03 Eh
   gradient norm :     0.0047494 Eh/α   predicted    -0.1966781E-03 ( -29.11%)
   displ. norm   :     0.3273870 α      lambda       -0.2884256E-03
   maximum displ.:     0.2231155 α      in ANC's #6, #5, #7, ...

........................................................................
.............................. CYCLE    9 ..............................
........................................................................
   1    -96.5393699 -0.965394E+02  0.994E-02    2.25       0.0  T
   2    -96.5393781 -0.825402E-05  0.554E-02    2.25       1.0  T
   3    -96.5393796 -0.149318E-05  0.757E-03    2.25       1.7  T
   4    -96.5393805 -0.873300E-06  0.426E-03    2.25       2.9  T
   5    -96.5393808 -0.249785E-06  0.159E-03    2.25       7.9  T
   6    -96.5393808 -0.214422E-07  0.116E-03    2.25      10.8  T
   7    -96.5393808 -0.727151E-08  0.737E-04    2.25      17.0  T
   8    -96.5393808 -0.598408E-08  0.307E-04    2.25      40.7  T
     SCC iter.                  ...        0 min,  0.365 sec
     gradient                   ...        0 min,  0.082 sec
 * total energy  :   -95.1490181 Eh     change       -0.2255238E-03 Eh
   gradient norm :     0.0041579 Eh/α   predicted    -0.1596715E-03 ( -29.20%)
   displ. norm   :     0.3772833 α      lambda       -0.2742460E-03
   maximum displ.:     0.2491566 α      in ANC's #6, #10, #5, ...

........................................................................
.............................. CYCLE   10 ..............................
........................................................................
   1    -96.5397513 -0.965398E+02  0.116E-01    2.25       0.0  T
   2    -96.5397624 -0.111420E-04  0.653E-02    2.25       1.0  T
   3    -96.5397642 -0.173710E-05  0.864E-03    2.25       1.4  T
   4    -96.5397657 -0.149557E-05  0.476E-03    2.25       2.6  T
   5    -96.5397659 -0.286079E-06  0.160E-03    2.25       7.8  T
   6    -96.5397660 -0.304626E-07  0.107E-03    2.25      11.7  T
   7    -96.5397660 -0.455798E-08  0.683E-04    2.25      18.3  T
   8    -96.5397660 -0.561614E-08  0.280E-04    2.25      44.6  T
     SCC iter.                  ...        0 min,  0.387 sec
     gradient                   ...        0 min,  0.113 sec
 * total energy  :   -95.1492333 Eh     change       -0.2151286E-03 Eh
   gradient norm :     0.0036178 Eh/α   predicted    -0.1566460E-03 ( -27.18%)
   displ. norm   :     0.4544017 α      lambda       -0.2828218E-03
   maximum displ.:     0.2898723 α      in ANC's #6, #10, #3, ...

........................................................................
.............................. CYCLE   11 ..............................
........................................................................
   1    -96.5393416 -0.965393E+02  0.135E-01    2.24       0.0  T
   2    -96.5393572 -0.156055E-04  0.761E-02    2.24       1.0  T
   3    -96.5393593 -0.211154E-05  0.101E-02    2.24       1.2  T
   4    -96.5393618 -0.253702E-05  0.536E-03    2.24       2.3  T
   5    -96.5393621 -0.329392E-06  0.165E-03    2.24       7.6  T
   6    -96.5393622 -0.352089E-07  0.103E-03    2.24      12.2  T
   7    -96.5393622 -0.345784E-08  0.682E-04    2.24      18.3  T
   8    -96.5393622 -0.511351E-08  0.276E-04    2.24      45.3  T
     SCC iter.                  ...        0 min,  0.518 sec
     gradient                   ...        0 min,  0.135 sec
 * total energy  :   -95.1494451 Eh     change       -0.2118029E-03 Eh
   gradient norm :     0.0044104 Eh/α   predicted    -0.1706113E-03 ( -19.45%)
   displ. norm   :     0.4102189 α      lambda       -0.2327478E-03
   maximum displ.:     0.2409696 α      in ANC's #6, #3, #10, ...

........................................................................
.............................. CYCLE   12 ..............................
........................................................................
   1    -96.5395983 -0.965396E+02  0.120E-01    2.24       0.0  T
   2    -96.5396110 -0.126767E-04  0.676E-02    2.24       1.0  T
   3    -96.5396126 -0.166485E-05  0.897E-03    2.24       1.4  T
   4    -96.5396147 -0.208346E-05  0.477E-03    2.24       2.6  T
   5    -96.5396150 -0.260197E-06  0.142E-03    2.24       8.8  T
   6    -96.5396150 -0.279621E-07  0.818E-04    2.24      15.3  T
   7    -96.5396150 -0.210206E-08  0.555E-04    2.24      22.5  T
     SCC iter.                  ...        0 min,  0.358 sec
     gradient                   ...        0 min,  0.138 sec
 * total energy  :   -95.1496278 Eh     change       -0.1827118E-03 Eh
   gradient norm :     0.0055724 Eh/α   predicted    -0.1359578E-03 ( -25.59%)
   displ. norm   :     0.4103971 α      lambda       -0.2741634E-03
   maximum displ.:     0.1984690 α      in ANC's #6, #3, #10, ...

........................................................................
.............................. CYCLE   13 ..............................
........................................................................
   1    -96.5416318 -0.965416E+02  0.113E-01    2.23       0.0  T
   2    -96.5416435 -0.116553E-04  0.635E-02    2.23       1.0  T
   3    -96.5416441 -0.638631E-06  0.953E-03    2.23       1.3  T
   4    -96.5416471 -0.299855E-05  0.444E-03    2.23       2.8  T
   5    -96.5416473 -0.181960E-06  0.135E-03    2.23       9.2  T
   6    -96.5416473 -0.216614E-07  0.789E-04    2.23      15.8  T
   7    -96.5416473 -0.233409E-08  0.567E-04    2.23      22.0  T
     SCC iter.                  ...        0 min,  0.354 sec
     gradient                   ...        0 min,  0.152 sec
 * total energy  :   -95.1498507 Eh     change       -0.2228841E-03 Eh
   gradient norm :     0.0055310 Eh/α   predicted    -0.1601729E-03 ( -28.14%)
   displ. norm   :     0.5066873 α      lambda       -0.3633493E-03
   maximum displ.:     0.2579167 α      in ANC's #3, #10, #6, ...

........................................................................
.............................. CYCLE   14 ..............................
........................................................................
   1    -96.5412350 -0.965412E+02  0.144E-01    2.22       0.0  T
   2    -96.5412556 -0.205974E-04  0.809E-02    2.22       1.0  T
   3    -96.5412557 -0.356751E-07  0.136E-02    2.22       1.0  T
   4    -96.5412622 -0.654592E-05  0.594E-03    2.22       2.1  T
   5    -96.5412625 -0.300651E-06  0.175E-03    2.22       7.1  T
   6    -96.5412626 -0.322897E-07  0.112E-03    2.22      11.1  T
   7    -96.5412626 -0.537179E-08  0.786E-04    2.22      15.9  T
   8    -96.5412626 -0.733252E-08  0.364E-04    2.22      34.4  T
     SCC iter.                  ...        0 min,  0.425 sec
     gradient                   ...        0 min,  0.135 sec
 * total energy  :   -95.1501481 Eh     change       -0.2973827E-03 Eh
   gradient norm :     0.0074012 Eh/α   predicted    -0.2283168E-03 ( -23.22%)
   displ. norm   :     0.5447735 α      lambda       -0.4982236E-03
   maximum displ.:     0.2891312 α      in ANC's #3, #7, #1, ...

........................................................................
.............................. CYCLE   15 ..............................
........................................................................
   1    -96.5447037 -0.965447E+02  0.147E-01    2.21       0.0  T
   2    -96.5447244 -0.207007E-04  0.823E-02    2.21       1.0  T
   3    -96.5447246 -0.250849E-06  0.141E-02    2.21       1.0  T
   4    -96.5447310 -0.635534E-05  0.582E-03    2.21       2.1  T
   5    -96.5447312 -0.253265E-06  0.192E-03    2.21       6.5  T
   6    -96.5447313 -0.340703E-07  0.127E-03    2.21       9.8  T
   7    -96.5447313 -0.771468E-08  0.907E-04    2.21      13.8  T
   8    -96.5447313 -0.863483E-08  0.467E-04    2.21      26.8  T
     SCC iter.                  ...        0 min,  0.357 sec
     gradient                   ...        0 min,  0.099 sec
 * total energy  :   -95.1505387 Eh     change       -0.3906243E-03 Eh
   gradient norm :     0.0076594 Eh/α   predicted    -0.3230456E-03 ( -17.30%)
   displ. norm   :     0.6812974 α      lambda       -0.6010571E-03
   maximum displ.:     0.3632960 α      in ANC's #3, #1, #10, ...

........................................................................
.............................. CYCLE   16 ..............................
........................................................................
   1    -96.5373588 -0.965374E+02  0.203E-01    2.21       0.0  T
   2    -96.5374026 -0.438466E-04  0.114E-01    2.21       1.0  T
   3    -96.5374014  0.125318E-05  0.208E-02    2.21       1.0  T
   4    -96.5374167 -0.153333E-04  0.845E-03    2.22       1.5  T
   5    -96.5374173 -0.537418E-06  0.228E-03    2.21       5.5  T
   6    -96.5374173 -0.568131E-07  0.145E-03    2.21       8.6  T
   7    -96.5374173 -0.101449E-07  0.103E-03    2.21      12.2  T
   8    -96.5374173 -0.982764E-08  0.546E-04    2.21      22.9  T
   9    -96.5374173 -0.296035E-08  0.274E-04    2.21      45.7  T
     SCC iter.                  ...        0 min,  0.674 sec
     gradient                   ...        0 min,  0.109 sec
 * total energy  :   -95.1509793 Eh     change       -0.4406283E-03 Eh
   gradient norm :     0.0142650 Eh/α   predicted    -0.4400244E-03 (  -0.14%)
   displ. norm   :     0.5061739 α      lambda       -0.8062338E-03
   maximum displ.:     0.2447118 α      in ANC's #7, #3, #1, ...

........................................................................
.............................. CYCLE   17 ..............................
........................................................................
   1    -96.5414269 -0.965414E+02  0.157E-01    2.21       0.0  T
   2    -96.5414502 -0.232798E-04  0.885E-02    2.22       1.0  T
   3    -96.5414502  0.175332E-07  0.156E-02    2.22       1.0  T
   4    -96.5414572 -0.702975E-05  0.616E-03    2.22       2.0  T
   5    -96.5414575 -0.296603E-06  0.214E-03    2.22       5.8  T
   6    -96.5414575 -0.468394E-07  0.126E-03    2.22      10.0  T
   7    -96.5414575 -0.961506E-08  0.902E-04    2.22      13.9  T
   8    -96.5414576 -0.590367E-08  0.460E-04    2.22      27.2  T
     SCC iter.                  ...        0 min,  0.436 sec
     gradient                   ...        0 min,  0.137 sec
 * total energy  :   -95.1514837 Eh     change       -0.5043913E-03 Eh
   gradient norm :     0.0126220 Eh/α   predicted    -0.5064041E-03 (   0.40%)
   displ. norm   :     0.5729544 α      lambda       -0.7908473E-03
   maximum displ.:     0.2954408 α      in ANC's #3, #1, #7, ...

........................................................................
.............................. CYCLE   18 ..............................
........................................................................
   1    -96.5331631 -0.965332E+02  0.156E-01    2.21       0.0  T
   2    -96.5331930 -0.298099E-04  0.875E-02    2.21       1.0  T
   3    -96.5331918  0.111519E-05  0.173E-02    2.21       1.0  T
   4    -96.5332015 -0.964592E-05  0.638E-03    2.21       2.0  T
   5    -96.5332018 -0.280553E-06  0.229E-03    2.21       5.5  T
   6    -96.5332018 -0.363512E-07  0.129E-03    2.21       9.7  T
   7    -96.5332018 -0.122341E-07  0.900E-04    2.21      13.9  T
   8    -96.5332018 -0.580124E-08  0.542E-04    2.21      23.0  T
     SCC iter.                  ...        0 min,  0.443 sec
     gradient                   ...        0 min,  0.139 sec
 * total energy  :   -95.1518598 Eh     change       -0.3760749E-03 Eh
   gradient norm :     0.0175765 Eh/α   predicted    -0.5252336E-03 (  39.66%)
   displ. norm   :     0.2873143 α      lambda       -0.6235635E-03
   maximum displ.:     0.1352884 α      in ANC's #1, #3, #7, ...

........................................................................
.............................. CYCLE   19 ..............................
........................................................................
   1    -96.5389837 -0.965390E+02  0.767E-02    2.19       0.0  T
   2    -96.5389892 -0.547314E-05  0.435E-02    2.19       1.0  T
   3    -96.5389898 -0.585937E-06  0.637E-03    2.19       2.0  T
   4    -96.5389905 -0.729734E-06  0.336E-03    2.19       3.7  T
   5    -96.5389906 -0.135857E-06  0.151E-03    2.19       8.3  T
   6    -96.5389907 -0.265811E-07  0.898E-04    2.19      13.9  T
   7    -96.5389907 -0.395410E-08  0.626E-04    2.19      20.0  T
     SCC iter.                  ...        0 min,  0.395 sec
     gradient                   ...        0 min,  0.145 sec
 * total energy  :   -95.1522176 Eh     change       -0.3578525E-03 Eh
   gradient norm :     0.0080473 Eh/α   predicted    -0.3375204E-03 (  -5.68%)
   displ. norm   :     0.3693100 α      lambda       -0.4150068E-03
   maximum displ.:     0.2044945 α      in ANC's #1, #3, #7, ...

........................................................................
.............................. CYCLE   20 ..............................
........................................................................
   1    -96.5416252 -0.965416E+02  0.113E-01    2.18       0.0  T
   2    -96.5416402 -0.149747E-04  0.635E-02    2.18       1.0  T
   3    -96.5416389  0.132282E-05  0.127E-02    2.18       1.0  T
   4    -96.5416448 -0.587916E-05  0.548E-03    2.18       2.3  T
   5    -96.5416450 -0.245529E-06  0.185E-03    2.18       6.7  T
   6    -96.5416450 -0.368104E-07  0.113E-03    2.18      11.0  T
   7    -96.5416450 -0.540354E-08  0.817E-04    2.18      15.3  T
   8    -96.5416450 -0.536667E-08  0.377E-04    2.18      33.2  T
     SCC iter.                  ...        0 min,  0.430 sec
     gradient                   ...        0 min,  0.060 sec
 * total energy  :   -95.1524271 Eh     change       -0.2094264E-03 Eh
   gradient norm :     0.0109211 Eh/α   predicted    -0.2358093E-03 (  12.60%)
   displ. norm   :     0.2031760 α      lambda       -0.3351202E-03
   maximum displ.:     0.1383118 α      in ANC's #1, #3, #2, ...
 * RMSD in coord.:     0.7191114 α      energy gain  -0.2117632E-01 Eh

generating ANC from model Hessian ...
Using Lindh-Hessian (1995)
 Shifting diagonal of input Hessian by    9.7966096024076962E-003
 Lowest  eigenvalues of input Hessian
    0.000000    0.000000    0.000000    0.000000    0.000000    0.000000
    0.010000    0.010526    0.010595    0.010781    0.010968    0.011889
    0.011994    0.012303    0.012715    0.013309    0.014653    0.015042
 Highest eigenvalues
    1.983878    1.985856    2.154685    2.159817    2.176731    2.177518


........................................................................
.............................. CYCLE   21 ..............................
........................................................................
   1    -96.5493596 -0.965494E+02  0.542E-02    2.17       0.0  T
   2    -96.5493623 -0.272122E-05  0.300E-02    2.17       1.0  T
   3    -96.5493621  0.211629E-06  0.587E-03    2.17       2.1  T
   4    -96.5493631 -0.966621E-06  0.270E-03    2.17       4.6  T
   5    -96.5493632 -0.540401E-07  0.111E-03    2.17      11.3  T
   6    -96.5493632 -0.117502E-07  0.704E-04    2.17      17.7  T
   7    -96.5493632 -0.249692E-08  0.473E-04    2.17      26.4  T
     SCC iter.                  ...        0 min,  0.192 sec
     gradient                   ...        0 min,  0.056 sec
 * total energy  :   -95.1525747 Eh     change       -0.1476830E-03 Eh
   gradient norm :     0.0070571 Eh/α   predicted     0.0000000E+00 (-100.00%)
   displ. norm   :     0.0772115 α      lambda       -0.1758808E-03
   maximum displ.:     0.0447510 α      in ANC's #1, #10, #13, ...

........................................................................
.............................. CYCLE   22 ..............................
........................................................................
   1    -96.5460227 -0.965460E+02  0.301E-02    2.18       0.0  T
   2    -96.5460237 -0.966622E-06  0.172E-02    2.18       1.0  T
   3    -96.5460237 -0.471674E-07  0.287E-03    2.18       4.4  T
   4    -96.5460239 -0.214362E-06  0.138E-03    2.18       9.1  T
   5    -96.5460239 -0.173250E-07  0.678E-04    2.18      18.4  T
   6    -96.5460239 -0.422230E-08  0.449E-04    2.18      27.8  T
     SCC iter.                  ...        0 min,  0.482 sec
     gradient                   ...        0 min,  0.081 sec
 * total energy  :   -95.1527046 Eh     change       -0.1298869E-03 Eh
   gradient norm :     0.0031320 Eh/α   predicted    -0.8921116E-04 ( -31.32%)
   displ. norm   :     0.1464151 α      lambda       -0.1659778E-03
   maximum displ.:     0.0927019 α      in ANC's #1, #10, #13, ...

........................................................................
.............................. CYCLE   23 ..............................
........................................................................
   1    -96.5428676 -0.965429E+02  0.528E-02    2.19       0.0  T
   2    -96.5428707 -0.319010E-05  0.296E-02    2.19       1.0  T
   3    -96.5428714 -0.690309E-06  0.418E-03    2.19       3.0  T
   4    -96.5428717 -0.273470E-06  0.231E-03    2.19       5.4  T
   5    -96.5428718 -0.562718E-07  0.940E-04    2.19      13.3  T
   6    -96.5428718 -0.858678E-08  0.687E-04    2.19      18.2  T
     SCC iter.                  ...        0 min,  0.262 sec
     gradient                   ...        0 min,  0.145 sec
 * total energy  :   -95.1528252 Eh     change       -0.1205657E-03 Eh
   gradient norm :     0.0034396 Eh/α   predicted    -0.8478328E-04 ( -29.68%)
   displ. norm   :     0.1883274 α      lambda       -0.1389580E-03
   maximum displ.:     0.1229257 α      in ANC's #1, #10, #3, ...

........................................................................
.............................. CYCLE   24 ..............................
........................................................................
   1    -96.5416673 -0.965417E+02  0.688E-02    2.21       0.0  T
   2    -96.5416728 -0.545404E-05  0.384E-02    2.21       1.0  T
   3    -96.5416740 -0.119418E-05  0.546E-03    2.21       2.3  T
   4    -96.5416745 -0.481132E-06  0.280E-03    2.21       4.5  T
   5    -96.5416746 -0.764658E-07  0.899E-04    2.21      13.9  T
   6    -96.5416746 -0.846143E-08  0.642E-04    2.21      19.5  T
     SCC iter.                  ...        0 min,  0.375 sec
     gradient                   ...        0 min,  0.112 sec
 * total energy  :   -95.1529356 Eh     change       -0.1104259E-03 Eh
   gradient norm :     0.0054668 Eh/α   predicted    -0.7200039E-04 ( -34.80%)
   displ. norm   :     0.2427777 α      lambda       -0.1638064E-03
   maximum displ.:     0.1626407 α      in ANC's #1, #10, #3, ...

........................................................................
.............................. CYCLE   25 ..............................
........................................................................
   1    -96.5421056 -0.965421E+02  0.898E-02    2.22       0.0  T
   2    -96.5421149 -0.931032E-05  0.499E-02    2.22       1.0  T
   3    -96.5421167 -0.179883E-05  0.755E-03    2.21       1.7  T
   4    -96.5421177 -0.104480E-05  0.362E-03    2.22       3.5  T
   5    -96.5421179 -0.111026E-06  0.109E-03    2.21      11.5  T
   6    -96.5421179 -0.135261E-07  0.726E-04    2.21      17.2  T
   7    -96.5421179 -0.236163E-08  0.489E-04    2.21      25.6  T
     SCC iter.                  ...        0 min,  0.436 sec
     gradient                   ...        0 min,  0.153 sec
 * total energy  :   -95.1530661 Eh     change       -0.1305261E-03 Eh
   gradient norm :     0.0059129 Eh/α   predicted    -0.8688872E-04 ( -33.43%)
   displ. norm   :     0.2555893 α      lambda       -0.1655311E-03
   maximum displ.:     0.1805429 α      in ANC's #1, #10, #3, ...

........................................................................
.............................. CYCLE   26 ..............................
........................................................................
   1    -96.5441600 -0.965442E+02  0.923E-02    2.22       0.0  T
   2    -96.5441695 -0.948868E-05  0.513E-02    2.22       1.0  T
   3    -96.5441711 -0.166656E-05  0.799E-03    2.22       1.6  T
   4    -96.5441723 -0.119496E-05  0.380E-03    2.22       3.3  T
   5    -96.5441724 -0.116396E-06  0.127E-03    2.22       9.8  T
   6    -96.5441725 -0.183865E-07  0.832E-04    2.22      15.0  T
   7    -96.5441725 -0.305238E-08  0.556E-04    2.22      22.5  T
     SCC iter.                  ...        0 min,  0.349 sec
     gradient                   ...        0 min,  0.134 sec
 * total energy  :   -95.1531955 Eh     change       -0.1293661E-03 Eh
   gradient norm :     0.0046691 Eh/α   predicted    -0.8817340E-04 ( -31.84%)
   displ. norm   :     0.2256325 α      lambda       -0.1312169E-03
   maximum displ.:     0.1702267 α      in ANC's #1, #10, #3, ...

........................................................................
.............................. CYCLE   27 ..............................
........................................................................
   1    -96.5465543 -0.965466E+02  0.759E-02    2.22       0.0  T
   2    -96.5465601 -0.579908E-05  0.422E-02    2.22       1.0  T
   3    -96.5465611 -0.105656E-05  0.640E-03    2.22       2.0  T
   4    -96.5465618 -0.665517E-06  0.325E-03    2.22       3.8  T
   5    -96.5465619 -0.929793E-07  0.125E-03    2.22      10.0  T
   6    -96.5465619 -0.168875E-07  0.842E-04    2.22      14.8  T
   7    -96.5465619 -0.308791E-08  0.528E-04    2.22      23.7  T
     SCC iter.                  ...        0 min,  0.398 sec
     gradient                   ...        0 min,  0.140 sec
 * total energy  :   -95.1532971 Eh     change       -0.1015692E-03 Eh
   gradient norm :     0.0027173 Eh/α   predicted    -0.6895006E-04 ( -32.12%)
   displ. norm   :     0.1921772 α      lambda       -0.8532141E-04
   maximum displ.:     0.1502833 α      in ANC's #1, #3, #10, ...

........................................................................
.............................. CYCLE   28 ..............................
........................................................................
   1    -96.5474431 -0.965474E+02  0.598E-02    2.22       0.0  T
   2    -96.5474463 -0.316015E-05  0.333E-02    2.22       1.0  T
   3    -96.5474469 -0.675169E-06  0.471E-03    2.22       2.7  T
   4    -96.5474472 -0.261277E-06  0.255E-03    2.22       4.9  T
   5    -96.5474473 -0.694883E-07  0.101E-03    2.22      12.4  T
   6    -96.5474473 -0.102131E-07  0.713E-04    2.22      17.5  T
   7    -96.5474473 -0.225710E-08  0.380E-04    2.22      32.9  T
     SCC iter.                  ...        0 min,  1.045 sec
     gradient                   ...        0 min,  0.112 sec
 * total energy  :   -95.1533682 Eh     change       -0.7110019E-04 Eh
   gradient norm :     0.0023262 Eh/α   predicted    -0.4426117E-04 ( -37.75%)
   displ. norm   :     0.1565923 α      lambda       -0.6563072E-04
   maximum displ.:     0.1249849 α      in ANC's #1, #3, #4, ...

........................................................................
.............................. CYCLE   29 ..............................
........................................................................
   1    -96.5474941 -0.965475E+02  0.431E-02    2.22       0.0  T
   2    -96.5474954 -0.127523E-05  0.238E-02    2.22       1.0  T
   3    -96.5474957 -0.334149E-06  0.317E-03    2.22       3.9  T
   4    -96.5474958 -0.437117E-07  0.178E-03    2.22       7.0  T
   5    -96.5474958 -0.474973E-07  0.785E-04    2.22      15.9  T
   6    -96.5474958 -0.450233E-08  0.588E-04    2.22      21.3  T
     SCC iter.                  ...        0 min,  0.451 sec
     gradient                   ...        0 min,  0.091 sec
 * total energy  :   -95.1534260 Eh     change       -0.5781169E-04 Eh
   gradient norm :     0.0023848 Eh/α   predicted    -0.3365696E-04 ( -41.78%)
   displ. norm   :     0.1449046 α      lambda       -0.6121460E-04
   maximum displ.:     0.1140406 α      in ANC's #1, #3, #4, ...

........................................................................
.............................. CYCLE   30 ..............................
........................................................................
   1    -96.5470136 -0.965470E+02  0.364E-02    2.22       0.0  T
   2    -96.5470142 -0.661411E-06  0.200E-02    2.22       1.0  T
   3    -96.5470144 -0.193660E-06  0.272E-03    2.22       4.6  T
   4    -96.5470144 -0.372975E-08  0.155E-03    2.22       8.1  T
   5    -96.5470145 -0.442434E-07  0.771E-04    2.22      16.2  T
   6    -96.5470145 -0.284959E-08  0.566E-04    2.22      22.1  T
     SCC iter.                  ...        0 min,  0.551 sec
     gradient                   ...        0 min,  0.110 sec
 * total energy  :   -95.1534818 Eh     change       -0.5584862E-04 Eh
   gradient norm :     0.0022573 Eh/α   predicted    -0.3125065E-04 ( -44.04%)
   displ. norm   :     0.1555341 α      lambda       -0.6702625E-04
   maximum displ.:     0.1192017 α      in ANC's #1, #3, #9, ...

........................................................................
.............................. CYCLE   31 ..............................
........................................................................
   1    -96.5465056 -0.965465E+02  0.369E-02    2.22       0.0  T
   2    -96.5465061 -0.487723E-06  0.201E-02    2.22       1.0  T
   3    -96.5465062 -0.118959E-06  0.294E-03    2.22       4.3  T
   4    -96.5465062 -0.328021E-07  0.185E-03    2.22       6.7  T
   5    -96.5465063 -0.480504E-07  0.859E-04    2.22      14.6  T
   6    -96.5465063 -0.303888E-08  0.622E-04    2.22      20.1  T
     SCC iter.                  ...        0 min,  0.195 sec
     gradient                   ...        0 min,  0.078 sec
 * total energy  :   -95.1535428 Eh     change       -0.6100809E-04 Eh
   gradient norm :     0.0021989 Eh/α   predicted    -0.3432587E-04 ( -43.74%)
   displ. norm   :     0.1755295 α      lambda       -0.7366794E-04
   maximum displ.:     0.1321278 α      in ANC's #1, #3, #9, ...

........................................................................
.............................. CYCLE   32 ..............................
........................................................................
   1    -96.5458697 -0.965459E+02  0.421E-02    2.22       0.0  T
   2    -96.5458703 -0.647163E-06  0.230E-02    2.22       1.0  T
   3    -96.5458705 -0.149076E-06  0.338E-03    2.22       3.7  T
   4    -96.5458705 -0.534627E-07  0.213E-03    2.22       5.9  T
   5    -96.5458706 -0.596732E-07  0.992E-04    2.22      12.6  T
   6    -96.5458706 -0.430697E-08  0.719E-04    2.22      17.4  T
     SCC iter.                  ...        0 min,  0.184 sec
     gradient                   ...        0 min,  0.068 sec
 * total energy  :   -95.1536095 Eh     change       -0.6662433E-04 Eh
   gradient norm :     0.0019993 Eh/α   predicted    -0.3797198E-04 ( -43.01%)
   displ. norm   :     0.2813823 α      lambda       -0.7525591E-04
   maximum displ.:     0.2100677 α      in ANC's #1, #3, #10, ...

........................................................................
.............................. CYCLE   33 ..............................
........................................................................
   1    -96.5454965 -0.965455E+02  0.695E-02    2.21       0.0  T
   2    -96.5454984 -0.195595E-05  0.381E-02    2.21       1.0  T
   3    -96.5454989 -0.454971E-06  0.553E-03    2.21       2.3  T
   4    -96.5454990 -0.160709E-06  0.343E-03    2.21       3.6  T
   5    -96.5454992 -0.151214E-06  0.158E-03    2.21       7.9  T
   6    -96.5454992 -0.107301E-07  0.115E-03    2.21      10.8  T
   7    -96.5454992 -0.915689E-08  0.419E-04    2.21      29.9  T
   8    -96.5454992 -0.321641E-08  0.131E-04    2.21      95.3  T
     SCC iter.                  ...        0 min,  0.300 sec
     gradient                   ...        0 min,  0.087 sec
 * total energy  :   -95.1537043 Eh     change       -0.9481568E-04 Eh
   gradient norm :     0.0023682 Eh/α   predicted    -0.3895459E-04 ( -58.92%)
   displ. norm   :     0.1494951 α      lambda       -0.5780037E-04
   maximum displ.:     0.1166981 α      in ANC's #1, #3, #4, ...

........................................................................
.............................. CYCLE   34 ..............................
........................................................................
   1    -96.5453569 -0.965454E+02  0.349E-02    2.21       0.0  T
   2    -96.5453573 -0.458376E-06  0.193E-02    2.21       1.0  T
   3    -96.5453575 -0.120129E-06  0.268E-03    2.21       4.7  T
   4    -96.5453575 -0.260361E-07  0.165E-03    2.21       7.6  T
   5    -96.5453575 -0.382644E-07  0.785E-04    2.21      15.9  T
   6    -96.5453575 -0.242507E-08  0.565E-04    2.21      22.1  T
     SCC iter.                  ...        0 min,  0.257 sec
     gradient                   ...        0 min,  0.103 sec
 * total energy  :   -95.1537556 Eh     change       -0.5131470E-04 Eh
   gradient norm :     0.0018581 Eh/α   predicted    -0.2954806E-04 ( -42.42%)
   displ. norm   :     0.2019874 α      lambda       -0.5421157E-04
   maximum displ.:     0.1607119 α      in ANC's #1, #3, #4, ...

........................................................................
.............................. CYCLE   35 ..............................
........................................................................
   1    -96.5461478 -0.965461E+02  0.470E-02    2.20       0.0  T
   2    -96.5461488 -0.945493E-06  0.260E-02    2.20       1.0  T
   3    -96.5461490 -0.283959E-06  0.350E-03    2.20       3.6  T
   4    -96.5461491 -0.977633E-08  0.205E-03    2.20       6.1  T
   5    -96.5461491 -0.742217E-07  0.104E-03    2.20      12.0  T
   6    -96.5461491 -0.386325E-08  0.701E-04    2.20      17.8  T
   7    -96.5461491 -0.461836E-08  0.188E-04    2.20      66.4  T
     SCC iter.                  ...        0 min,  0.292 sec
     gradient                   ...        0 min,  0.096 sec
 * total energy  :   -95.1538268 Eh     change       -0.7116479E-04 Eh
   gradient norm :     0.0012295 Eh/α   predicted    -0.2760041E-04 ( -61.22%)
   displ. norm   :     0.1750478 α      lambda       -0.4440825E-04
   maximum displ.:     0.1445387 α      in ANC's #1, #3, #4, ...

........................................................................
.............................. CYCLE   36 ..............................
........................................................................
   1    -96.5463716 -0.965464E+02  0.384E-02    2.20       0.0  T
   2    -96.5463722 -0.566615E-06  0.211E-02    2.20       1.0  T
   3    -96.5463723 -0.131342E-06  0.304E-03    2.20       4.1  T
   4    -96.5463723 -0.393441E-07  0.190E-03    2.20       6.6  T
   5    -96.5463724 -0.553517E-07  0.860E-04    2.20      14.5  T
   6    -96.5463724 -0.270386E-08  0.616E-04    2.20      20.3  T
     SCC iter.                  ...        0 min,  0.266 sec
     gradient                   ...        0 min,  0.095 sec
 * total energy  :   -95.1538862 Eh     change       -0.5945557E-04 Eh
   gradient norm :     0.0010104 Eh/α   predicted    -0.2250712E-04 ( -62.14%)
   displ. norm   :     0.1518104 α      lambda       -0.3795094E-04
   maximum displ.:     0.1279245 α      in ANC's #1, #3, #9, ...

........................................................................
.............................. CYCLE   37 ..............................
........................................................................
   1    -96.5469891 -0.965470E+02  0.336E-02    2.20       0.0  T
   2    -96.5469897 -0.574296E-06  0.185E-02    2.20       1.0  T
   3    -96.5469898 -0.142333E-06  0.269E-03    2.20       4.6  T
   4    -96.5469899 -0.326590E-07  0.161E-03    2.20       7.8  T
   5    -96.5469899 -0.356472E-07  0.760E-04    2.20      16.4  T
   6    -96.5469899 -0.223658E-08  0.546E-04    2.20      22.9  T
     SCC iter.                  ...        0 min,  0.279 sec
     gradient                   ...        0 min,  0.112 sec
 * total energy  :   -95.1539368 Eh     change       -0.5060505E-04 Eh
   gradient norm :     0.0009831 Eh/α   predicted    -0.1917230E-04 ( -62.11%)
   displ. norm   :     0.1445171 α      lambda       -0.3579762E-04
   maximum displ.:     0.1224891 α      in ANC's #1, #3, #11, ...

........................................................................
.............................. CYCLE   38 ..............................
........................................................................
   1    -96.5471535 -0.965472E+02  0.339E-02    2.21       0.0  T
   2    -96.5471543 -0.750060E-06  0.187E-02    2.21       1.0  T
   3    -96.5471543 -0.399739E-07  0.331E-03    2.21       3.8  T
   4    -96.5471545 -0.199613E-06  0.178E-03    2.21       7.0  T
   5    -96.5471546 -0.261107E-07  0.799E-04    2.21      15.6  T
   6    -96.5471546 -0.344330E-08  0.597E-04    2.21      20.9  T
     SCC iter.                  ...        0 min,  0.297 sec
     gradient                   ...        0 min,  0.134 sec
 * total energy  :   -95.1539841 Eh     change       -0.4728679E-04 Eh
   gradient norm :     0.0010566 Eh/α   predicted    -0.1806833E-04 ( -61.79%)
   displ. norm   :     0.1346980 α      lambda       -0.3202065E-04
   maximum displ.:     0.1146418 α      in ANC's #1, #3, #9, ...

........................................................................
.............................. CYCLE   39 ..............................
........................................................................
   1    -96.5471209 -0.965471E+02  0.331E-02    2.21       0.0  T
   2    -96.5471217 -0.807679E-06  0.183E-02    2.21       1.0  T
   3    -96.5471219 -0.135300E-06  0.281E-03    2.21       4.5  T
   4    -96.5471220 -0.116081E-06  0.150E-03    2.21       8.3  T
   5    -96.5471220 -0.197550E-07  0.591E-04    2.21      21.2  T
   6    -96.5471220 -0.252101E-08  0.444E-04    2.21      28.1  T
     SCC iter.                  ...        0 min,  0.342 sec
     gradient                   ...        0 min,  0.101 sec
 * total energy  :   -95.1540280 Eh     change       -0.4389963E-04 Eh
   gradient norm :     0.0008769 Eh/α   predicted    -0.1614121E-04 ( -63.23%)
   displ. norm   :     0.1316142 α      lambda       -0.3018044E-04
   maximum displ.:     0.1131192 α      in ANC's #1, #3, #6, ...

........................................................................
.............................. CYCLE   40 ..............................
........................................................................
   1    -96.5473996 -0.965474E+02  0.313E-02    2.22       0.0  T
   2    -96.5474004 -0.773728E-06  0.174E-02    2.22       1.0  T
   3    -96.5474005 -0.128287E-06  0.268E-03    2.22       4.7  T
   4    -96.5474007 -0.110446E-06  0.139E-03    2.22       9.0  T
   5    -96.5474007 -0.154824E-07  0.554E-04    2.22      22.6  T
   6    -96.5474007 -0.280744E-08  0.409E-04    2.22      30.6  T
     SCC iter.                  ...        0 min,  0.272 sec
     gradient                   ...        0 min,  0.136 sec
 * total energy  :   -95.1540697 Eh     change       -0.4166894E-04 Eh
   gradient norm :     0.0007050 Eh/α   predicted    -0.1520785E-04 ( -63.50%)
   displ. norm   :     0.1287626 α      lambda       -0.2794581E-04
   maximum displ.:     0.1106034 α      in ANC's #1, #2, #3, ...

........................................................................
.............................. CYCLE   41 ..............................
........................................................................
   1    -96.5471339 -0.965471E+02  0.291E-02    2.22       0.0  T
   2    -96.5471346 -0.631625E-06  0.163E-02    2.22       1.0  T
   3    -96.5471347 -0.126705E-06  0.223E-03    2.22       5.6  T
   4    -96.5471348 -0.616838E-07  0.120E-03    2.22      10.4  T
   5    -96.5471348 -0.156527E-07  0.447E-04    2.22      28.0  T
   6    -96.5471348 -0.201693E-08  0.326E-04    2.22      38.4  T
     SCC iter.                  ...        0 min,  0.299 sec
     gradient                   ...        0 min,  0.124 sec
 * total energy  :   -95.1541079 Eh     change       -0.3821498E-04 Eh
   gradient norm :     0.0007568 Eh/α   predicted    -0.1407667E-04 ( -63.16%)
   displ. norm   :     0.1173816 α      lambda       -0.2415754E-04
   maximum displ.:     0.1011714 α      in ANC's #1, #2, #8, ...

........................................................................
.............................. CYCLE   42 ..............................
........................................................................
   1    -96.5472518 -0.965473E+02  0.221E-02    2.22       0.0  T
   2    -96.5472521 -0.329678E-06  0.123E-02    2.22       1.0  T
   3    -96.5472522 -0.607144E-07  0.183E-03    2.22       6.8  T
   4    -96.5472522 -0.403009E-07  0.969E-04    2.22      12.9  T
   5    -96.5472523 -0.882915E-08  0.397E-04    2.22      31.5  T
     SCC iter.                  ...        0 min,  0.255 sec
     gradient                   ...        0 min,  0.138 sec
 * total energy  :   -95.1541408 Eh     change       -0.3289274E-04 Eh
   gradient norm :     0.0007548 Eh/α   predicted    -0.1215455E-04 ( -63.05%)
   displ. norm   :     0.1034450 α      lambda       -0.2035392E-04
   maximum displ.:     0.0894751 α      in ANC's #1, #2, #8, ...
 * RMSD in coord.:     0.4017668 α      energy gain  -0.1713735E-02 Eh

generating ANC from model Hessian ...
Using Lindh-Hessian (1995)
 Shifting diagonal of input Hessian by    9.7941307437776348E-003
 Lowest  eigenvalues of input Hessian
    0.000000    0.000000    0.000000    0.000000    0.000000    0.000000
    0.010000    0.010552    0.010614    0.010765    0.010942    0.011916
    0.012031    0.012228    0.012739    0.013298    0.014710    0.015043
 Highest eigenvalues
    1.983551    1.985457    2.148680    2.153372    2.172433    2.172958


........................................................................
.............................. CYCLE   43 ..............................
........................................................................
   1    -96.5471118 -0.965471E+02  0.160E-02    2.22       0.0  T
   2    -96.5471119 -0.145168E-06  0.912E-03    2.22       1.4  T
   3    -96.5471119 -0.205995E-07  0.126E-03    2.22       9.9  T
   4    -96.5471119 -0.270628E-07  0.760E-04    2.22      16.4  T
   5    -96.5471120 -0.619448E-08  0.385E-04    2.22      32.5  T
     SCC iter.                  ...        0 min,  0.155 sec
     gradient                   ...        0 min,  0.077 sec
 * total energy  :   -95.1541691 Eh     change       -0.2827733E-04 Eh
   gradient norm :     0.0006722 Eh/α   predicted     0.0000000E+00 (-100.00%)
   displ. norm   :     0.0501016 α      lambda       -0.1286651E-04
   maximum displ.:     0.0472678 α      in ANC's #1, #25, #6, ...

........................................................................
.............................. CYCLE   44 ..............................
........................................................................
   1    -96.5471004 -0.965471E+02  0.972E-03    2.22       0.0  T
   2    -96.5471005 -0.714581E-07  0.543E-03    2.22       2.3  T
   3    -96.5471005 -0.776228E-08  0.896E-04    2.22      13.9  T
   4    -96.5471005 -0.159533E-07  0.483E-04    2.22      25.9  T
     SCC iter.                  ...        0 min,  0.138 sec
     gradient                   ...        0 min,  0.068 sec
 * total energy  :   -95.1541872 Eh     change       -0.1813619E-04 Eh
   gradient norm :     0.0004906 Eh/α   predicted    -0.6450501E-05 ( -64.43%)
   displ. norm   :     0.0722143 α      lambda       -0.1726472E-04
   maximum displ.:     0.0636097 α      in ANC's #1, #3, #6, ...

........................................................................
.............................. CYCLE   45 ..............................
........................................................................
   1    -96.5470616 -0.965471E+02  0.167E-02    2.22       0.0  T
   2    -96.5470618 -0.274092E-06  0.934E-03    2.22       1.3  T
   3    -96.5470619 -0.450422E-07  0.143E-03    2.22       8.8  T
   4    -96.5470619 -0.428388E-07  0.685E-04    2.22      18.2  T
   5    -96.5470619 -0.340921E-08  0.269E-04    2.22      46.5  T
     SCC iter.                  ...        0 min,  0.118 sec
     gradient                   ...        0 min,  0.049 sec
 * total energy  :   -95.1542112 Eh     change       -0.2402280E-04 Eh
   gradient norm :     0.0005034 Eh/α   predicted    -0.8653203E-05 ( -63.98%)
   displ. norm   :     0.0943404 α      lambda       -0.2004404E-04
   maximum displ.:     0.0813202 α      in ANC's #1, #3, #6, ...

........................................................................
.............................. CYCLE   46 ..............................
........................................................................
   1    -96.5470427 -0.965470E+02  0.234E-02    2.22       0.0  T
   2    -96.5470432 -0.545302E-06  0.131E-02    2.22       1.0  T
   3    -96.5470433 -0.106791E-06  0.182E-03    2.22       6.9  T
   4    -96.5470434 -0.604810E-07  0.877E-04    2.22      14.3  T
   5    -96.5470434 -0.632180E-08  0.255E-04    2.22      49.0  T
     SCC iter.                  ...        0 min,  0.117 sec
     gradient                   ...        0 min,  0.055 sec
 * total energy  :   -95.1542385 Eh     change       -0.2730122E-04 Eh
   gradient norm :     0.0004335 Eh/α   predicted    -0.1006613E-04 ( -63.13%)
   displ. norm   :     0.0971259 α      lambda       -0.1797494E-04
   maximum displ.:     0.0843838 α      in ANC's #1, #3, #22, ...

........................................................................
.............................. CYCLE   47 ..............................
........................................................................
   1    -96.5470116 -0.965470E+02  0.221E-02    2.21       0.0  T
   2    -96.5470121 -0.501290E-06  0.123E-02    2.21       1.0  T
   3    -96.5470122 -0.107321E-06  0.167E-03    2.21       7.5  T
   4    -96.5470122 -0.471407E-07  0.830E-04    2.21      15.1  T
   5    -96.5470122 -0.600247E-08  0.258E-04    2.21      48.5  T
     SCC iter.                  ...        0 min,  0.130 sec
     gradient                   ...        0 min,  0.062 sec
 * total energy  :   -95.1542634 Eh     change       -0.2488090E-04 Eh
   gradient norm :     0.0004266 Eh/α   predicted    -0.9025200E-05 ( -63.73%)
   displ. norm   :     0.0834301 α      lambda       -0.1435553E-04
   maximum displ.:     0.0739298 α      in ANC's #1, #3, #9, ...

........................................................................
.............................. CYCLE   48 ..............................
........................................................................
   1    -96.5470258 -0.965470E+02  0.167E-02    2.21       0.0  T
   2    -96.5470260 -0.270435E-06  0.936E-03    2.21       1.3  T
   3    -96.5470261 -0.595889E-07  0.122E-03    2.21      10.3  T
   4    -96.5470261 -0.249561E-07  0.612E-04    2.21      20.4  T
   5    -96.5470261 -0.343766E-08  0.179E-04    2.21      70.0  T
     SCC iter.                  ...        0 min,  0.165 sec
     gradient                   ...        0 min,  0.071 sec
 * total energy  :   -95.1542838 Eh     change       -0.2036327E-04 Eh
   gradient norm :     0.0003986 Eh/α   predicted    -0.7203744E-05 ( -64.62%)
   displ. norm   :     0.0686869 α      lambda       -0.1184843E-04
   maximum displ.:     0.0621858 α      in ANC's #1, #3, #9, ...

........................................................................
.............................. CYCLE   49 ..............................
........................................................................
   1    -96.5470867 -0.965471E+02  0.108E-02    2.21       0.0  T
   2    -96.5470869 -0.107284E-06  0.605E-03    2.21       2.1  T
   3    -96.5470869 -0.260524E-07  0.736E-04    2.21      17.0  T
   4    -96.5470869 -0.787141E-08  0.397E-04    2.21      31.5  T
     SCC iter.                  ...        0 min,  0.134 sec
     gradient                   ...        0 min,  0.082 sec
 * total energy  :   -95.1543008 Eh     change       -0.1703438E-04 Eh
   gradient norm :     0.0003854 Eh/α   predicted    -0.5938942E-05 ( -65.14%)
   displ. norm   :     0.0597530 α      lambda       -0.1061465E-04
   maximum displ.:     0.0549367 α      in ANC's #1, #3, #7, ...

........................................................................
.............................. CYCLE   50 ..............................
........................................................................
   1    -96.5471194 -0.965471E+02  0.802E-03    2.21       0.0  T
   2    -96.5471195 -0.444070E-07  0.458E-03    2.21       2.7  T
   3    -96.5471195 -0.849801E-08  0.541E-04    2.21      23.1  T
   4    -96.5471195 -0.586191E-08  0.282E-04    2.21      44.3  T
     SCC iter.                  ...        0 min,  0.116 sec
     gradient                   ...        0 min,  0.053 sec
 * total energy  :   -95.1543161 Eh     change       -0.1533469E-04 Eh
   gradient norm :     0.0003506 Eh/α   predicted    -0.5318482E-05 ( -65.32%)
   displ. norm   :     0.0567018 α      lambda       -0.1022757E-04
   maximum displ.:     0.0524300 α      in ANC's #1, #3, #11, ...

........................................................................
.............................. CYCLE   51 ..............................
........................................................................
   1    -96.5471512 -0.965472E+02  0.792E-03    2.21       0.0  T
   2    -96.5471513 -0.402131E-07  0.449E-03    2.21       2.8  T
   3    -96.5471513 -0.368789E-08  0.634E-04    2.21      19.7  T
   4    -96.5471513 -0.101158E-07  0.296E-04    2.21      42.2  T
     SCC iter.                  ...        0 min,  0.144 sec
     gradient                   ...        0 min,  0.077 sec
 * total energy  :   -95.1543309 Eh     change       -0.1475418E-04 Eh
   gradient norm :     0.0003433 Eh/α   predicted    -0.5121894E-05 ( -65.29%)
   displ. norm   :     0.0570482 α      lambda       -0.1014993E-04
   maximum displ.:     0.0526305 α      in ANC's #1, #3, #11, ...

........................................................................
.............................. CYCLE   52 ..............................
........................................................................
   1    -96.5472101 -0.965472E+02  0.957E-03    2.21       0.0  T
   2    -96.5472101 -0.609923E-07  0.540E-03    2.21       2.3  T
   3    -96.5472101 -0.664367E-08  0.805E-04    2.21      15.5  T
   4    -96.5472102 -0.135051E-07  0.391E-04    2.21      32.0  T
     SCC iter.                  ...        0 min,  0.279 sec
     gradient                   ...        0 min,  0.096 sec
 * total energy  :   -95.1543455 Eh     change       -0.1463947E-04 Eh
   gradient norm :     0.0003208 Eh/α   predicted    -0.5083572E-05 ( -65.27%)
   displ. norm   :     0.0576811 α      lambda       -0.9938477E-05
   maximum displ.:     0.0531452 α      in ANC's #1, #3, #9, ...

........................................................................
.............................. CYCLE   53 ..............................
........................................................................
   1    -96.5472392 -0.965472E+02  0.106E-02    2.22       0.0  T
   2    -96.5472392 -0.770615E-07  0.597E-03    2.22       2.1  T
   3    -96.5472392 -0.407381E-08  0.973E-04    2.22      12.8  T
   4    -96.5472393 -0.219928E-07  0.455E-04    2.22      27.5  T
     SCC iter.                  ...        0 min,  0.230 sec
     gradient                   ...        0 min,  0.146 sec
 * total energy  :   -95.1543599 Eh     change       -0.1436375E-04 Eh
   gradient norm :     0.0002990 Eh/α   predicted    -0.4978402E-05 ( -65.34%)
   displ. norm   :     0.0571181 α      lambda       -0.9469546E-05
   maximum displ.:     0.0526364 α      in ANC's #1, #9, #4, ...

........................................................................
.............................. CYCLE   54 ..............................
........................................................................
   1    -96.5472824 -0.965473E+02  0.111E-02    2.22       0.0  T
   2    -96.5472824 -0.763318E-07  0.619E-03    2.22       2.0  T
   3    -96.5472824 -0.887673E-08  0.967E-04    2.22      12.9  T
   4    -96.5472825 -0.170240E-07  0.503E-04    2.22      24.9  T
     SCC iter.                  ...        0 min,  0.238 sec
     gradient                   ...        0 min,  0.155 sec
 * total energy  :   -95.1543736 Eh     change       -0.1370798E-04 Eh
   gradient norm :     0.0002970 Eh/α   predicted    -0.4742532E-05 ( -65.40%)
   displ. norm   :     0.0548740 α      lambda       -0.8846671E-05
   maximum displ.:     0.0508060 α      in ANC's #1, #4, #9, ...

........................................................................
.............................. CYCLE   55 ..............................
........................................................................
   1    -96.5473206 -0.965473E+02  0.107E-02    2.22       0.0  T
   2    -96.5473207 -0.673303E-07  0.594E-03    2.22       2.1  T
   3    -96.5473207 -0.446734E-08  0.101E-03    2.22      12.4  T
   4    -96.5473207 -0.193830E-07  0.529E-04    2.22      23.6  T
   5    -96.5473207 -0.189013E-08  0.240E-04    2.22      52.1  T
     SCC iter.                  ...        0 min,  0.283 sec
     gradient                   ...        0 min,  0.151 sec
 * total energy  :   -95.1543864 Eh     change       -0.1283384E-04 Eh
   gradient norm :     0.0002850 Eh/α   predicted    -0.4429896E-05 ( -65.48%)
   displ. norm   :     0.0524827 α      lambda       -0.8288013E-05
   maximum displ.:     0.0485580 α      in ANC's #1, #4, #9, ...

........................................................................
.............................. CYCLE   56 ..............................
........................................................................
   1    -96.5473338 -0.965473E+02  0.103E-02    2.22       0.0  T
   2    -96.5473339 -0.532892E-07  0.568E-03    2.22       2.2  T
   3    -96.5473339 -0.839881E-08  0.898E-04    2.22      13.9  T
   4    -96.5473339 -0.100185E-07  0.518E-04    2.22      24.1  T
     SCC iter.                  ...        0 min,  0.489 sec
     gradient                   ...        0 min,  0.099 sec
 * total energy  :   -95.1543985 Eh     change       -0.1205845E-04 Eh
   gradient norm :     0.0002809 Eh/α   predicted    -0.4149980E-05 ( -65.58%)
   displ. norm   :     0.0507192 α      lambda       -0.7860336E-05
   maximum displ.:     0.0467496 α      in ANC's #1, #4, #5, ...

........................................................................
.............................. CYCLE   57 ..............................
........................................................................
   1    -96.5473552 -0.965474E+02  0.977E-03    2.22       0.0  T
   2    -96.5473552 -0.379613E-07  0.542E-03    2.22       2.3  T
   3    -96.5473553 -0.594717E-08  0.873E-04    2.22      14.3  T
   4    -96.5473553 -0.826002E-08  0.532E-04    2.22      23.5  T
     SCC iter.                  ...        0 min,  0.606 sec
     gradient                   ...        0 min,  0.102 sec
 * total energy  :   -95.1544101 Eh     change       -0.1155540E-04 Eh
   gradient norm :     0.0002708 Eh/α   predicted    -0.3935189E-05 ( -65.95%)
   displ. norm   :     0.0506499 α      lambda       -0.7784681E-05
   maximum displ.:     0.0462429 α      in ANC's #1, #3, #4, ...

........................................................................
.............................. CYCLE   58 ..............................
........................................................................
   1    -96.5473613 -0.965474E+02  0.102E-02    2.22       0.0  T
   2    -96.5473613 -0.376734E-07  0.559E-03    2.22       2.2  T
   3    -96.5473613 -0.835917E-08  0.903E-04    2.22      13.8  T
   4    -96.5473613 -0.562339E-08  0.571E-04    2.22      21.9  T
     SCC iter.                  ...        0 min,  0.737 sec
     gradient                   ...        0 min,  0.129 sec
 * total energy  :   -95.1544215 Eh     change       -0.1146528E-04 Eh
   gradient norm :     0.0002744 Eh/α   predicted    -0.3900891E-05 ( -65.98%)
   displ. norm   :     0.0524644 α      lambda       -0.7960105E-05
   maximum displ.:     0.0471611 α      in ANC's #1, #3, #4, ...

........................................................................
.............................. CYCLE   59 ..............................
........................................................................
   1    -96.5473589 -0.965474E+02  0.109E-02    2.22       0.0  T
   2    -96.5473589 -0.400292E-07  0.601E-03    2.22       2.1  T
   3    -96.5473590 -0.102767E-07  0.939E-04    2.22      13.3  T
   4    -96.5473590 -0.412365E-08  0.600E-04    2.22      20.8  T
     SCC iter.                  ...        0 min,  0.610 sec
     gradient                   ...        0 min,  0.126 sec
 * total energy  :   -95.1544332 Eh     change       -0.1170407E-04 Eh
   gradient norm :     0.0002677 Eh/α   predicted    -0.3989840E-05 ( -65.91%)
   displ. norm   :     0.0560168 α      lambda       -0.8291680E-05
   maximum displ.:     0.0496377 α      in ANC's #1, #3, #4, ...

........................................................................
.............................. CYCLE   60 ..............................
........................................................................
   1    -96.5473584 -0.965474E+02  0.121E-02    2.22       0.0  T
   2    -96.5473584 -0.511746E-07  0.668E-03    2.22       1.9  T
   3    -96.5473585 -0.147908E-07  0.102E-03    2.22      12.3  T
   4    -96.5473585 -0.360251E-08  0.652E-04    2.22      19.2  T
   5    -96.5473585 -0.602887E-08  0.340E-04    2.22      36.7  T
     SCC iter.                  ...        0 min,  0.255 sec
     gradient                   ...        0 min,  0.159 sec
 * total energy  :   -95.1544454 Eh     change       -0.1220194E-04 Eh
   gradient norm :     0.0002604 Eh/α   predicted    -0.4152002E-05 ( -65.97%)
   displ. norm   :     0.0597243 α      lambda       -0.8594281E-05
   maximum displ.:     0.0523333 α      in ANC's #1, #3, #5, ...

........................................................................
.............................. CYCLE   61 ..............................
........................................................................
   1    -96.5473488 -0.965473E+02  0.133E-02    2.22       0.0  T
   2    -96.5473488 -0.642468E-07  0.731E-03    2.22       1.7  T
   3    -96.5473488 -0.187902E-07  0.107E-03    2.22      11.6  T
   4    -96.5473488 -0.307480E-08  0.656E-04    2.22      19.1  T
   5    -96.5473489 -0.629215E-08  0.339E-04    2.22      36.8  T
     SCC iter.                  ...        0 min,  1.783 sec
     gradient                   ...        0 min,  0.198 sec
 * total energy  :   -95.1544580 Eh     change       -0.1258225E-04 Eh
   gradient norm :     0.0002559 Eh/α   predicted    -0.4304180E-05 ( -65.79%)
   displ. norm   :     0.0615310 α      lambda       -0.8567580E-05
   maximum displ.:     0.0538007 α      in ANC's #1, #3, #5, ...

........................................................................
.............................. CYCLE   62 ..............................
........................................................................
   1    -96.5473487 -0.965473E+02  0.135E-02    2.22       0.0  T
   2    -96.5473487 -0.649852E-07  0.748E-03    2.22       1.7  T
   3    -96.5473487 -0.204528E-07  0.106E-03    2.22      11.8  T
   4    -96.5473487 -0.225582E-08  0.643E-04    2.22      19.4  T
   5    -96.5473487 -0.603055E-08  0.345E-04    2.22      36.2  T
     SCC iter.                  ...        0 min,  0.289 sec
     gradient                   ...        0 min,  0.154 sec
 * total energy  :   -95.1544705 Eh     change       -0.1253099E-04 Eh
   gradient norm :     0.0002455 Eh/α   predicted    -0.4291355E-05 ( -65.75%)
   displ. norm   :     0.0609600 α      lambda       -0.8230639E-05
   maximum displ.:     0.0534026 α      in ANC's #1, #3, #5, ...

........................................................................
.............................. CYCLE   63 ..............................
........................................................................
   1    -96.5473523 -0.965474E+02  0.133E-02    2.22       0.0  T
   2    -96.5473524 -0.649818E-07  0.732E-03    2.22       1.7  T
   3    -96.5473524 -0.215370E-07  0.105E-03    2.22      11.9  T
   4    -96.5473524 -0.121237E-08  0.619E-04    2.22      20.2  T
[...]
                  HL-Gap            0.0815719 Eh            2.2197 eV
             Fermi-level           -0.3365209 Eh           -9.1572 eV

 SCC (total)                   0 d,  0 h,  0 min,  0.476 sec
 SCC setup                      ...        0 min,  0.029 sec (  6.174%)
 Dispersion                     ...        0 min,  0.026 sec (  5.516%)
 classical contributions        ...        0 min,  0.014 sec (  2.854%)
 integral evaluation            ...        0 min,  0.035 sec (  7.331%)
 iterations                     ...        0 min,  0.221 sec ( 46.357%)
 molecular gradient             ...        0 min,  0.150 sec ( 31.622%)
 printout                       ...        0 min,  0.001 sec (  0.136%)

         :::::::::::::::::::::::::::::::::::::::::::::::::::::
         ::                     SUMMARY                     ::
         :::::::::::::::::::::::::::::::::::::::::::::::::::::
         :: total energy             -95.154641589008 Eh    ::
         :: total w/o Gsasa/hb       -95.120157137704 Eh    ::
         :: gradient norm              0.000158215768 Eh/a0 ::
         :: HOMO-LUMO gap              2.219683059761 eV    ::
         ::.................................................::
         :: SCC energy               -96.547571800328 Eh    ::
         :: -> isotropic ES            0.050039013355 Eh    ::
         :: -> anisotropic ES          0.003043444163 Eh    ::
         :: -> anisotropic XC          0.068174715393 Eh    ::
         :: -> dispersion             -0.079421484737 Eh    ::
         :: -> Gsolv                  -0.042748033911 Eh    ::
         ::    -> Gelec               -0.008263582607 Eh    ::
         ::    -> Gsasa               -0.038375470547 Eh    ::
         ::    -> Ghb                  0.000000000000 Eh    ::
         ::    -> Gshift               0.003891019244 Eh    ::
         :: repulsion energy           1.392808412747 Eh    ::
         :: add. restraining           0.000000000000 Eh    ::
         :: total charge               0.000000000000 e     ::
         :::::::::::::::::::::::::::::::::::::::::::::::::::::

           -------------------------------------------------
          |                Property Printout                |
           -------------------------------------------------

    * Orbital Energies and Occupations

         #    Occupation            Energy/Eh            Energy/eV
      -------------------------------------------------------------
         1        2.0000           -0.8444886             -22.9797
       ...           ...                  ...                  ...
        76        2.0000           -0.4312383             -11.7346
        77        2.0000           -0.4305699             -11.7164
        78        2.0000           -0.4204584             -11.4413
        79        2.0000           -0.4183686             -11.3844
        80        2.0000           -0.4181160             -11.3775
        81        2.0000           -0.4157626             -11.3135
        82        2.0000           -0.4071438             -11.0789
        83        2.0000           -0.4057700             -11.0416
        84        2.0000           -0.4049184             -11.0184
        85        2.0000           -0.3836922             -10.4408
        86        2.0000           -0.3830449             -10.4232
        87        2.0000           -0.3789914             -10.3129
        88        2.0000           -0.3773068             -10.2670 (HOMO)
        89                         -0.2957350              -8.0474 (LUMO)
        90                         -0.2865127              -7.7964
        91                         -0.2820040              -7.6737
        92                         -0.2727002              -7.4205
        93                         -0.2307390              -6.2787
        94                         -0.2250558              -6.1241
        95                         -0.2137184              -5.8156
        96                         -0.2137014              -5.8151
        97                         -0.1898103              -5.1650
        98                         -0.1822401              -4.9590
        99                         -0.1027893              -2.7970
       ...                                ...                  ...
       176                          0.6691204              18.2077
      -------------------------------------------------------------
                  HL-Gap            0.0815719 Eh            2.2197 eV
             Fermi-level           -0.3365209 Eh           -9.1572 eV

     #   Z          covCN         q      C6AA      α(0)
     1   6 C        3.805    -0.060    21.655     6.625
     2   6 C        3.806    -0.061    21.663     6.626
     3   6 C        3.806    -0.061    21.663     6.626
     4   6 C        3.805    -0.060    21.656     6.625
     5   6 C        3.811    -0.065    21.741     6.637
     6   6 C        3.805    -0.063    21.711     6.633
     7   6 C        3.805    -0.063    21.711     6.633
     8   6 C        3.811    -0.066    21.754     6.639
     9   6 C        2.929    -0.028    28.705     8.786
    10   6 C        2.927    -0.027    28.688     8.784
    11   6 C        2.992    -0.027    28.664     8.782
    12   6 C        2.995    -0.034    28.827     8.807
    13   6 C        2.994    -0.034    28.827     8.807
    14   6 C        2.993    -0.027    28.665     8.783
    15   6 C        2.864     0.084    26.116     8.377
    16   6 C        2.843     0.077    26.273     8.400
    17   6 C        2.843     0.077    26.270     8.400
    18   6 C        2.858     0.085    26.096     8.373
    19   6 C        2.979     0.019    27.585     8.615
    20   6 C        2.980     0.013    27.720     8.636
    21   6 C        2.982     0.013    27.729     8.638
    22   6 C        2.980     0.019    27.581     8.615
    23   6 C        2.914     0.090    25.992     8.360
    24   6 C        2.913     0.090    25.989     8.360
    25   6 C        3.827     0.062    19.523     6.287
    26   6 C        3.806     0.054    19.666     6.313
    27   6 C        3.805     0.054    19.670     6.314
    28   6 C        3.822     0.062    19.520     6.287
    29  35 Br       1.062    -0.190   190.322    22.244
    30  35 Br       1.062    -0.189   190.299    22.242
    31   7 N        1.837    -0.245    27.230     7.733
    32   7 N        1.837    -0.259    27.582     7.783
    33   7 N        1.838    -0.259    27.585     7.783
    34   7 N        1.837    -0.245    27.245     7.735
    35   1 H        0.924     0.042     2.424     2.435
    36   1 H        0.924     0.035     2.513     2.479
    37   1 H        0.924     0.039     2.465     2.455
    38   1 H        0.924     0.040     2.449     2.447
    39   1 H        0.924     0.039     2.467     2.456
    40   1 H        0.924     0.040     2.454     2.450
    41   1 H        0.924     0.035     2.514     2.479
    42   1 H        0.924     0.042     2.423     2.434
    43   1 H        0.924     0.054     2.274     2.358
    44   1 H        0.924     0.042     2.423     2.434
    45   1 H        0.924     0.032     2.557     2.501
    46   1 H        0.924     0.033     2.543     2.494
    47   1 H        0.924     0.033     2.550     2.497
    48   1 H        0.924     0.032     2.561     2.502
    49   1 H        0.924     0.043     2.406     2.426
    50   1 H        0.924     0.054     2.272     2.357
    51   1 H        0.926     0.073     2.054     2.241
    52   1 H        0.926     0.072     2.062     2.246
    53   1 H        0.926     0.086     1.918     2.166
    54   1 H        0.926     0.067     2.119     2.276
    55   1 H        0.926     0.066     2.125     2.280
    56   1 H        0.926     0.086     1.923     2.168
    57   1 H        0.923     0.012     2.860     2.645
    58   1 H        0.924     0.015     2.804     2.619
    59   1 H        0.924     0.015     2.817     2.625
    60   1 H        0.924     0.013     2.850     2.640
    61   1 H        0.922     0.007     2.943     2.683
    62   1 H        0.923     0.056     2.245     2.343
    63   1 H        0.923     0.054     2.276     2.359
    64   1 H        0.923     0.009     2.909     2.667

 Mol. C6AA /au·bohr⁶  :      54671.650581
 Mol. C8AA /au·bohr⁸  :    1501386.354829
 Mol. α(0) /au        :        364.453524


Wiberg/Mayer (AO) data.
largest (>0.10) Wiberg bond orders for each atom

 ---------------------------------------------------------------------------
     #   Z sym  total        # sym  WBO       # sym  WBO       # sym  WBO
 ---------------------------------------------------------------------------
     1   6 C    3.997 --     2 C    1.009     5 C    1.009    36 H    0.977
                            35 H    0.976
     2   6 C    3.997 --     1 C    1.009     6 C    1.007    38 H    0.977
                            37 H    0.976
     3   6 C    3.997 --     4 C    1.009     7 C    1.007    40 H    0.977
                            39 H    0.976
     4   6 C    3.997 --     3 C    1.009     8 C    1.009    41 H    0.977
                            42 H    0.976
     5   6 C    3.992 --     1 C    1.009    25 C    0.986    44 H    0.974
                            43 H    0.974
     6   6 C    3.996 --     2 C    1.007    26 C    0.984    45 H    0.975
                            46 H    0.973
     7   6 C    3.997 --     3 C    1.007    27 C    0.984    48 H    0.974
                            47 H    0.974
     8   6 C    3.992 --     4 C    1.009    28 C    0.987    50 H    0.974
                            49 H    0.974
     9   6 C    3.985 --    19 C    1.401    21 C    1.376    51 H    0.961
    10   6 C    3.985 --    22 C    1.402    20 C    1.377    52 H    0.961
    11   6 C    3.979 --    23 C    1.433    19 C    1.353    53 H    0.961
    12   6 C    3.978 --    24 C    1.412    20 C    1.374    54 H    0.964
    13   6 C    3.977 --    23 C    1.410    21 C    1.375    55 H    0.964
    14   6 C    3.979 --    24 C    1.431    22 C    1.355    56 H    0.961
    15   6 C    3.968 --    31 N    1.842    19 C    1.076    57 H    0.938
    16   6 C    3.968 --    32 N    1.836    20 C    1.076    58 H    0.938
    17   6 C    3.967 --    33 N    1.834    21 C    1.075    59 H    0.939
    18   6 C    3.967 --    34 N    1.848    22 C    1.072    60 H    0.937
    19   6 C    3.989 --     9 C    1.401    11 C    1.353    15 C    1.076
    20   6 C    3.988 --    10 C    1.377    12 C    1.374    16 C    1.076
    21   6 C    3.988 --     9 C    1.376    13 C    1.375    17 C    1.075
    22   6 C    3.989 --    10 C    1.402    14 C    1.355    18 C    1.072
    23   6 C    3.933 --    11 C    1.433    13 C    1.410    29 Br   0.966
    24   6 C    3.934 --    14 C    1.431    12 C    1.412    30 Br   0.966
    25   6 C    3.977 --    31 N    1.024     5 C    0.986    61 H    0.953
                            26 C    0.918
    26   6 C    3.977 --    32 N    1.031     6 C    0.984    62 H    0.939
                            25 C    0.918
    27   6 C    3.978 --    33 N    1.031     7 C    0.984    63 H    0.943
                            28 C    0.917
    28   6 C    3.977 --    34 N    1.022     8 C    0.987    64 H    0.953
                            27 C    0.917
    29  35 Br   1.090 --    23 C    0.966
    30  35 Br   1.090 --    24 C    0.966
    31   7 N    3.074 --    15 C    1.842    25 C    1.024
    32   7 N    3.091 --    16 C    1.836    26 C    1.031
    33   7 N    3.090 --    17 C    1.834    27 C    1.031
    34   7 N    3.074 --    18 C    1.848    28 C    1.022
    35   1 H    0.997 --     1 C    0.976
    36   1 H    0.999 --     1 C    0.977
    37   1 H    0.998 --     2 C    0.976
    38   1 H    0.998 --     2 C    0.977
    39   1 H    0.998 --     3 C    0.976
    40   1 H    0.998 --     3 C    0.977
    41   1 H    0.999 --     4 C    0.977
    42   1 H    0.997 --     4 C    0.976
    43   1 H    0.997 --     5 C    0.974
    44   1 H    0.997 --     5 C    0.974
    45   1 H    0.999 --     6 C    0.975
    46   1 H    0.998 --     6 C    0.973
    47   1 H    0.998 --     7 C    0.974
    48   1 H    0.999 --     7 C    0.974
    49   1 H    0.996 --     8 C    0.974
    50   1 H    0.997 --     8 C    0.974
    51   1 H    0.994 --     9 C    0.961
    52   1 H    0.994 --    10 C    0.961
    53   1 H    0.992 --    11 C    0.961
    54   1 H    0.995 --    12 C    0.964
    55   1 H    0.995 --    13 C    0.964
    56   1 H    0.992 --    14 C    0.961
    57   1 H    0.999 --    15 C    0.938
    58   1 H    0.999 --    16 C    0.938
    59   1 H    0.999 --    17 C    0.939
    60   1 H    0.999 --    18 C    0.937
    61   1 H    1.000 --    25 C    0.953
    62   1 H    0.993 --    26 C    0.939
    63   1 H    0.994 --    27 C    0.943
    64   1 H    0.999 --    28 C    0.953
 ---------------------------------------------------------------------------

Topologies differ in total number of bonds
Writing topology from bond orders to xtbtopo.mol

molecular dipole:
                 x           y           z       tot (Debye)
 q only:        0.029      -0.006      -0.173
   full:        0.083      -0.044      -0.228       0.627
molecular quadrupole (traceless):
                xx          xy          yy          xz          yz          zz
 q only:       35.231      13.347     -36.054       5.675      10.563       0.822
  q+dip:       52.563       8.407     -62.293       9.884      12.877       9.730
   full:       49.469       7.539     -63.320       7.444      16.628      13.851

           -------------------------------------------------
          |                Geometry Summary                 |
           -------------------------------------------------

      molecular mass/u    :      582.3726961
   center of mass at/Å    :       -0.0374490       0.0171990       0.1619535
  moments of inertia/u·Å² :        0.6534469E+04   0.8551376E+04   0.1465740E+05
rotational constants/cm⁻¹ :        0.2579801E-02   0.1971336E-02   0.1150110E-02

 * 59 selected distances

     #   Z          #   Z                                           value/Å
     1   6 C        2   6 C                                       1.5245285
     3   6 C        4   6 C                                       1.5248132
     1   6 C        5   6 C                                       1.5234641
     2   6 C        6   6 C                                       1.5250126
     3   6 C        7   6 C                                       1.5245669
     4   6 C        8   6 C                                       1.5237820
     9   6 C       19   6 C                                       1.3894026
    11   6 C       19   6 C                                       1.3971655
    10   6 C       20   6 C                                       1.3943332
    12   6 C       20   6 C                                       1.3944546
     9   6 C       21   6 C                                       1.3937156
    13   6 C       21   6 C                                       1.3938256
    10   6 C       22   6 C                                       1.3900358
    14   6 C       22   6 C                                       1.3969869
    11   6 C       23   6 C                                       1.3796659
    13   6 C       23   6 C                                       1.3841050
    12   6 C       24   6 C                                       1.3833796
    14   6 C       24   6 C                                       1.3794905
     5   6 C       25   6 C                                       1.5284157
     6   6 C       26   6 C                                       1.5306798
     7   6 C       27   6 C                                       1.5306293
     8   6 C       28   6 C                                       1.5294764
    23   6 C       29  35 Br                                      1.9177433 (max)
    24   6 C       30  35 Br                                      1.9170662
    15   6 C       31   7 N                                       1.2621289
    16   6 C       32   7 N                                       1.2617475
    17   6 C       33   7 N                                       1.2620641
    27   6 C       33   7 N                                       1.4283415
    18   6 C       34   7 N                                       1.2620355
     1   6 C       35   1 H                                       1.0913044
     1   6 C       36   1 H                                       1.0929364
     2   6 C       37   1 H                                       1.0920436
     2   6 C       38   1 H                                       1.0920563
     3   6 C       39   1 H                                       1.0919902
     3   6 C       40   1 H                                       1.0921543
     4   6 C       41   1 H                                       1.0928941
     4   6 C       42   1 H                                       1.0913144
     5   6 C       43   1 H                                       1.0910230
     5   6 C       44   1 H                                       1.0917612
     6   6 C       45   1 H                                       1.0936672
     6   6 C       46   1 H                                       1.0930826
     7   6 C       47   1 H                                       1.0932701
     7   6 C       48   1 H                                       1.0932965
     8   6 C       49   1 H                                       1.0916172
     8   6 C       50   1 H                                       1.0910969
     9   6 C       51   1 H                                       1.0788776
    10   6 C       52   1 H                                       1.0788974
    11   6 C       53   1 H                                       1.0777810 (min)
    12   6 C       54   1 H                                       1.0797118
    13   6 C       55   1 H                                       1.0796935
    14   6 C       56   1 H                                       1.0778935
    15   6 C       57   1 H                                       1.0981143
    16   6 C       58   1 H                                       1.0958995
    17   6 C       59   1 H                                       1.0957664
    18   6 C       60   1 H                                       1.0975272
    25   6 C       61   1 H                                       1.1049406
    26   6 C       62   1 H                                       1.0982095
    27   6 C       63   1 H                                       1.0982205
    28   6 C       64   1 H                                       1.1041151

 * 4 distinct bonds (by element types)

   Z      Z             #   av. dist./Å        max./Å        min./Å
   1 H    6 C          30     1.0913719     1.1049406     1.0777810
   6 C    6 C          22     1.4519059     1.5306798     1.3794905
   6 C    7 N           5     1.2952635     1.4283415     1.2617475
   6 C   35 Br          2     1.9174048     1.9177433     1.9170662


optimized geometry written to: xtbopt.xyz


           -------------------------------------------------
          | TOTAL ENERGY              -95.154641589008 Eh   |
          | GRADIENT NORM               0.000158215768 Eh/α |
          | HOMO-LUMO GAP               2.219683059761 eV   |
           -------------------------------------------------

------------------------------------------------------------------------
 * finished run on 2022/04/01 at 14:30:01.236     
------------------------------------------------------------------------
 total:
 * wall-time:     0 d,  0 h,  0 min, 46.866 sec
 *  cpu-time:     0 d,  0 h, 28 min,  0.691 sec
 * ratio c/w:    35.862 speedup
 SCF:
 * wall-time:     0 d,  0 h,  0 min,  0.614 sec
 *  cpu-time:     0 d,  0 h,  0 min, 22.118 sec
 * ratio c/w:    36.002 speedup
 ANC optimizer:
 * wall-time:     0 d,  0 h,  0 min, 46.176 sec
 *  cpu-time:     0 d,  0 h, 27 min, 35.866 sec
 * ratio c/w:    35.860 speedup

