      -----------------------------------------------------------      
     |                   =====================                   |     
     |                           x T B                           |     
     |                   =====================                   |     
     |                         S. Grimme                         |     
     |          Mulliken Center for Theoretical Chemistry        |     
     |                    University of Bonn                     |     
      -----------------------------------------------------------      

   * xtb version 6.4.1 (23d549d) compiled by 'conda@3c73975816cd' on 2022-01-07

   xtb is free software: you can redistribute it and/or modify it under
   the terms of the GNU Lesser General Public License as published by
   the Free Software Foundation, either version 3 of the License, or
   (at your option) any later version.
   
   xtb is distributed in the hope that it will be useful,
   but WITHOUT ANY WARRANTY; without even the implied warranty of
   MERCHANTABILITY or FITNESS FOR A PARTICULAR PURPOSE.  See the
   GNU Lesser General Public License for more details.
   
   Cite this work as:
   * C. Bannwarth, E. Caldeweyher, S. Ehlert, A. Hansen, P. Pracht,
     J. Seibert, S. Spicher, S. Grimme, WIREs Comput. Mol. Sci., 2020, 11,
     e01493. DOI: 10.1002/wcms.1493
   
   for GFN2-xTB:
   * C. Bannwarth, S. Ehlert and S. Grimme., J. Chem. Theory Comput., 2019,
     15, 1652-1671. DOI: 10.1021/acs.jctc.8b01176
   for GFN1-xTB:
   * S. Grimme, C. Bannwarth, P. Shushkov, J. Chem. Theory Comput., 2017,
     13, 1989-2009. DOI: 10.1021/acs.jctc.7b00118
   for GFN0-xTB:
   * P. Pracht, E. Caldeweyher, S. Ehlert, S. Grimme, ChemRxiv, 2019, preprint.
     DOI: 10.26434/chemrxiv.8326202.v1
   for GFN-FF:
   * S. Spicher and S. Grimme, Angew. Chem. Int. Ed., 2020, 59, 15665-15673.
     DOI: 10.1002/anie.202004239
   
   for DFT-D4:
   * E. Caldeweyher, C. Bannwarth and S. Grimme, J. Chem. Phys., 2017,
     147, 034112. DOI: 10.1063/1.4993215
   * E. Caldeweyher, S. Ehlert, A. Hansen, H. Neugebauer, S. Spicher,
     C. Bannwarth and S. Grimme, J. Chem. Phys., 2019, 150, 154122.
     DOI: 10.1063/1.5090222
   * E. Caldeweyher, J.-M. Mewes, S. Ehlert and S. Grimme, Phys. Chem. Chem. Phys.
     2020, 22, 8499-8512. DOI: 10.1039/D0CP00502A
   
   for sTDA-xTB:
   * S. Grimme and C. Bannwarth, J. Chem. Phys., 2016, 145, 054103.
     DOI: 10.1063/1.4959605
   
   in the mass-spec context:
   * V. Asgeirsson, C. Bauer and S. Grimme, Chem. Sci., 2017, 8, 4879.
     DOI: 10.1039/c7sc00601b
   * J. Koopman and S. Grimme, ACS Omega 2019, 4, 12, 15120-15133.
     DOI: 10.1021/acsomega.9b02011
   
   for metadynamics refer to:
   * S. Grimme, J. Chem. Theory Comput., 2019, 155, 2847-2862
     DOI: 10.1021/acs.jctc.9b00143
   
   for SPH calculations refer to:
   * S. Spicher and S. Grimme, J. Chem. Theory Comput., 2021, 17, 1701-1714
     DOI: 10.1021/acs.jctc.0c01306
   
   with help from (in alphabetical order)
   P. Atkinson, C. Bannwarth, F. Bohle, G. Brandenburg, E. Caldeweyher
   M. Checinski, S. Dohm, S. Ehlert, S. Ehrlich, I. Gerasimov, J. Koopman
   C. Lavigne, S. Lehtola, F. März, M. Müller, F. Musil, H. Neugebauer
   J. Pisarek, C. Plett, P. Pracht, J. Seibert, P. Shushkov, S. Spicher
   M. Stahn, M. Steiner, T. Strunk, J. Stückrath, T. Rose, and J. Unsleber
   
 * started run on 2022/04/01 at 14:32:29.387     

           -------------------------------------------------
          |                Calculation Setup                |
           -------------------------------------------------

          program call               : xtb JYKSSIDNHAGOTC-XTVBVBRTSA-N_ETKDG_MMFF.xyz --opt --gfn 2 --alpb chcl3 --cycles 10000
          coordinate file            : JYKSSIDNHAGOTC-XTVBVBRTSA-N_ETKDG_MMFF.xyz
          omp threads                :                    36
          number of atoms            :                   128
          number of electrons        :                   352
          charge                     :                     0
          spin                       :                   0.0
          first test random number   :      0.38554924957060

   ID    Z sym.   atoms
    1    6 C      1-56
    2   35 Br     57-60
    3    7 N      61-68
    4    1 H      69-128

           -------------------------------------------------
          |                 G F N 2 - x T B                 |
           -------------------------------------------------

        Reference                      10.1021/acs.jctc.8b01176
      * Hamiltonian:
        H0-scaling (s, p, d)           1.850000    2.230000    2.230000
        zeta-weighting                 0.500000
      * Dispersion:
        s8                             2.700000
        a1                             0.520000
        a2                             5.000000
        s9                             5.000000
      * Repulsion:
        kExp                           1.500000    1.000000
        rExp                           1.000000
      * Coulomb:
        alpha                          2.000000
        third order                    shell-resolved
        anisotropic                    true
        a3                             3.000000
        a5                             4.000000
        cn-shift                       1.200000
        cn-exp                         4.000000
        max-rad                        5.000000

      * Solvation model:               ALPB
        Solvent                        chcl3
        Parameter file                 internal GFN2-xTB/ALPB
        Dielectric constant                4.8100E+00
        Reference state                gsolv [1 M gas/solution]
        Free energy shift                  3.8910E-03 Eh       2.4417E+00 kcal/mol
        Temperature                        2.9815E+02 K
        Density                            1.4900E+00 kg/L
        Solvent mass                       1.1938E+02 g/mol
        Interaction kernel             P16
        Born radius scaling (c1)           1.3274E+00
        Born radii integrator          GBOBC
        Born offset                        0.0000E+00 a0       0.0000E+00 AA
        H-bond correction              false
        Ion screening                  false
        Surface tension                    1.0000E-05 Eh       1.5569E+01 dyn/cm
        Grid points                               230 per atom

          ...................................................
          :                      SETUP                      :
          :.................................................:
          :  # basis functions                 356          :
          :  # atomic orbitals                 352          :
          :  # shells                          200          :
          :  # electrons                       352          :
          :  max. iterations                   250          :
          :  Hamiltonian                  GFN2-xTB          :
          :  restarted?                      false          :
          :  GBSA solvation                   true          :
          :  PC potential                    false          :
          :  electronic temp.          300.0000000     K    :
          :  accuracy                    1.0000000          :
          :  -> integral cutoff          0.2500000E+02      :
          :  -> integral neglect         0.1000000E-07      :
          :  -> SCF convergence          0.1000000E-05 Eh   :
          :  -> wf. convergence          0.1000000E-03 e    :
          :  Broyden damping             0.4000000          :
          ...................................................

 iter      E             dE          RMSdq      gap      omega  full diag
   1   -192.7268834 -0.192727E+03  0.407E+00    2.75       0.0  T
   2   -192.8460391 -0.119156E+00  0.252E+00    2.58       1.0  T
   3   -192.8112816  0.347575E-01  0.878E-01    2.30       1.0  T
   4   -192.8673680 -0.560863E-01  0.366E-01    2.32       1.0  T
   5   -192.8703093 -0.294130E-02  0.193E-01    2.29       1.0  T
   6   -192.8708067 -0.497404E-03  0.123E-01    2.31       1.0  T
   7   -192.8710948 -0.288155E-03  0.871E-02    2.31       1.0  T
   8   -192.8712396 -0.144748E-03  0.517E-02    2.31       1.0  T
   9   -192.8713083 -0.686892E-04  0.183E-02    2.31       1.0  T
  10   -192.8713191 -0.107829E-04  0.751E-03    2.31       1.2  T
  11   -192.8713202 -0.108278E-05  0.421E-03    2.31       2.1  T
  12   -192.8713207 -0.542552E-06  0.122E-03    2.31       7.2  T
  13   -192.8713207 -0.325903E-07  0.881E-04    2.31      10.0  T
  14   -192.8713207 -0.974288E-08  0.462E-04    2.31      19.1  T

   *** convergence criteria satisfied after 14 iterations ***

         #    Occupation            Energy/Eh            Energy/eV
      -------------------------------------------------------------
         1        2.0000           -0.8530437             -23.2125
       ...           ...                  ...                  ...
       170        2.0000           -0.3986293             -10.8473
       171        2.0000           -0.3975055             -10.8167
       172        2.0000           -0.3959845             -10.7753
       173        2.0000           -0.3957793             -10.7697
       174        2.0000           -0.3926832             -10.6855
       175        2.0000           -0.3908400             -10.6353
       176        2.0000           -0.3881939             -10.5633 (HOMO)
       177                         -0.3034853              -8.2583 (LUMO)
       178                         -0.3015980              -8.2069
       179                         -0.3000921              -8.1659
       180                         -0.2976515              -8.0995
       181                         -0.2911142              -7.9216
       ...                                ...                  ...
       352                          0.6170472              16.7907
      -------------------------------------------------------------
                  HL-Gap            0.0847086 Eh            2.3050 eV
             Fermi-level           -0.3458396 Eh           -9.4108 eV

 SCC (total)                   0 d,  0 h,  0 min,  0.983 sec
 SCC setup                      ...        0 min,  0.018 sec (  1.832%)
 Dispersion                     ...        0 min,  0.019 sec (  1.898%)
 classical contributions        ...        0 min,  0.007 sec (  0.701%)
 integral evaluation            ...        0 min,  0.032 sec (  3.223%)
 iterations                     ...        0 min,  0.810 sec ( 82.436%)
 molecular gradient             ...        0 min,  0.095 sec (  9.691%)
 printout                       ...        0 min,  0.002 sec (  0.213%)

         :::::::::::::::::::::::::::::::::::::::::::::::::::::
         ::                     SUMMARY                     ::
         :::::::::::::::::::::::::::::::::::::::::::::::::::::
         :: total energy            -190.267350396903 Eh    ::
         :: total w/o Gsasa/hb      -190.196971460576 Eh    ::
         :: gradient norm              0.163958936812 Eh/a0 ::
         :: HOMO-LUMO gap              2.305038699573 eV    ::
         ::.................................................::
         :: SCC energy              -192.871320736745 Eh    ::
         :: -> isotropic ES            0.100191755878 Eh    ::
         :: -> anisotropic ES          0.011115948579 Eh    ::
         :: -> anisotropic XC          0.139201315754 Eh    ::
         :: -> dispersion             -0.166027693211 Eh    ::
         :: -> Gsolv                  -0.087649460630 Eh    ::
         ::    -> Gelec               -0.017270524302 Eh    ::
         ::    -> Gsasa               -0.074269955571 Eh    ::
         ::    -> Ghb                  0.000000000000 Eh    ::
         ::    -> Gshift               0.003891019244 Eh    ::
         :: repulsion energy           2.600001351938 Eh    ::
         :: add. restraining           0.000000000000 Eh    ::
         :: total charge              -0.000000000000 e     ::
         :::::::::::::::::::::::::::::::::::::::::::::::::::::

      ----------------------------------------------------------- 
     |                   =====================                   |
     |                        A N C O P T                        |
     |                   =====================                   |
     |               Approximate Normal Coordinate               |
     |                Rational Function Optimizer                |
      ----------------------------------------------------------- 

          ...................................................
          :                      SETUP                      :
          :.................................................:
          :   optimization level            normal          :
          :   max. optcycles                 10000          :
          :   ANC micro-cycles                  20          :
          :   degrees of freedom               378          :
          :.................................................:
          :   RF solver                   davidson          :
          :   write xtbopt.log                true          :
          :   linear?                        false          :
          :   energy convergence         0.5000000E-05 Eh   :
          :   grad. convergence          0.1000000E-02 Eh/α :
          :   maximium RF displ.         1.0000000          :
          :   Hlow (freq-cutoff)         0.1000000E-01      :
          :   Hmax (freq-cutoff)         5.0000000          :
          :   S6 in model hess.         20.0000000          :
          ...................................................

generating ANC from model Hessian ...
Using Lindh-Hessian (1995)
 Shifting diagonal of input Hessian by    9.9727662087373357E-003
 Lowest  eigenvalues of input Hessian
    0.000000    0.000000    0.000000    0.000000    0.000000    0.000000
    0.010000    0.010023    0.010081    0.010101    0.010205    0.010247
    0.010273    0.010346    0.010492    0.010541    0.010642    0.010722
 Highest eigenvalues
    2.001210    2.005369    2.023619    2.024045    2.028491    2.033197


........................................................................
.............................. CYCLE    1 ..............................
........................................................................
   1   -192.8713207 -0.192871E+03  0.231E-04    2.31       0.0  T
   2   -192.8713207 -0.387899E-09  0.179E-04    2.31      49.5  T
   3   -192.8713207 -0.388525E-10  0.130E-04    2.31      67.9  T
     SCC iter.                  ...        0 min,  0.198 sec
     gradient                   ...        0 min,  0.102 sec
 * total energy  :  -190.2673504 Eh     change       -0.6220290E-08 Eh
   gradient norm :     0.1639530 Eh/α   predicted     0.0000000E+00 (-100.00%)
   displ. norm   :     0.3581347 α      lambda       -0.3528797E-01
   maximum displ.:     0.0783035 α      in ANC's #87, #86, #250, ...

........................................................................
.............................. CYCLE    2 ..............................
........................................................................
   1   -192.9995954 -0.193000E+03  0.183E-01    2.27       0.0  T
   2   -192.9996867 -0.913838E-04  0.108E-01    2.28       1.0  T
   3   -192.9996522  0.345859E-04  0.282E-02    2.27       1.0  T
   4   -192.9997064 -0.542381E-04  0.950E-03    2.27       1.0  T
   5   -192.9997088 -0.244404E-05  0.501E-03    2.27       1.8  T
   6   -192.9997093 -0.440763E-06  0.326E-03    2.27       2.7  T
   7   -192.9997094 -0.125798E-06  0.191E-03    2.27       4.6  T
   8   -192.9997095 -0.830667E-07  0.123E-03    2.27       7.2  T
   9   -192.9997095 -0.324243E-07  0.516E-04    2.27      17.1  T
  10   -192.9997095 -0.865671E-08  0.236E-04    2.27      37.4  T
     SCC iter.                  ...        0 min,  0.757 sec
     gradient                   ...        0 min,  0.134 sec
 * total energy  :  -190.2916969 Eh     change       -0.2434647E-01 Eh
   gradient norm :     0.0667903 Eh/α   predicted    -0.1991846E-01 ( -18.19%)
   displ. norm   :     0.3787188 α      lambda       -0.1162769E-01
   maximum displ.:     0.0795744 α      in ANC's #64, #55, #38, ...

........................................................................
.............................. CYCLE    3 ..............................
........................................................................
   1   -193.0685804 -0.193069E+03  0.121E-01    2.22       0.0  T
   2   -193.0686765 -0.961089E-04  0.740E-02    2.23       1.0  T
   3   -193.0686384  0.380399E-04  0.325E-02    2.22       1.0  T
   4   -193.0687033 -0.648975E-04  0.887E-03    2.23       1.0  T
   5   -193.0687052 -0.186857E-05  0.469E-03    2.22       1.9  T
   6   -193.0687056 -0.401920E-06  0.318E-03    2.22       2.8  T
   7   -193.0687057 -0.939586E-07  0.216E-03    2.22       4.1  T
   8   -193.0687058 -0.136001E-06  0.110E-03    2.22       8.0  T
   9   -193.0687059 -0.246388E-07  0.435E-04    2.23      20.3  T
  10   -193.0687059 -0.615645E-08  0.213E-04    2.23      41.4  T
     SCC iter.                  ...        0 min,  0.848 sec
     gradient                   ...        0 min,  0.184 sec
 * total energy  :  -190.2989781 Eh     change       -0.7281176E-02 Eh
   gradient norm :     0.0220876 Eh/α   predicted    -0.6647718E-02 (  -8.70%)
   displ. norm   :     0.3610884 α      lambda       -0.2909712E-02
   maximum displ.:     0.1036854 α      in ANC's #25, #38, #23, ...

........................................................................
.............................. CYCLE    4 ..............................
........................................................................
   1   -193.0801733 -0.193080E+03  0.744E-02    2.20       0.0  T
   2   -193.0802017 -0.284567E-04  0.435E-02    2.21       1.0  T
   3   -193.0801872  0.144848E-04  0.189E-02    2.20       1.0  T
   4   -193.0802125 -0.252779E-04  0.456E-03    2.21       1.9  T
   5   -193.0802128 -0.298010E-06  0.229E-03    2.21       3.9  T
   6   -193.0802129 -0.112128E-06  0.138E-03    2.21       6.4  T
   7   -193.0802129 -0.198554E-07  0.104E-03    2.21       8.5  T
   8   -193.0802130 -0.239301E-07  0.568E-04    2.21      15.6  T
   9   -193.0802130 -0.694419E-08  0.192E-04    2.21      46.0  T
     SCC iter.                  ...        0 min,  0.475 sec
     gradient                   ...        0 min,  0.086 sec
 * total energy  :  -190.3010937 Eh     change       -0.2115688E-02 Eh
   gradient norm :     0.0116372 Eh/α   predicted    -0.1644618E-02 ( -22.27%)
   displ. norm   :     0.4443238 α      lambda       -0.1942009E-02
   maximum displ.:     0.1527218 α      in ANC's #25, #23, #15, ...

........................................................................
.............................. CYCLE    5 ..............................
........................................................................
   1   -193.0816585 -0.193082E+03  0.847E-02    2.20       0.0  T
   2   -193.0816794 -0.209955E-04  0.479E-02    2.20       1.0  T
   3   -193.0816669  0.125493E-04  0.161E-02    2.20       1.0  T
   4   -193.0816875 -0.205943E-04  0.402E-03    2.20       2.2  T
   5   -193.0816876 -0.143848E-06  0.168E-03    2.20       5.3  T
   6   -193.0816877 -0.852180E-07  0.931E-04    2.20       9.5  T
   7   -193.0816877 -0.971082E-08  0.706E-04    2.20      12.5  T
     SCC iter.                  ...        0 min,  0.398 sec
     gradient                   ...        0 min,  0.128 sec
 * total energy  :  -190.3025117 Eh     change       -0.1417968E-02 Eh
   gradient norm :     0.0105710 Eh/α   predicted    -0.1162708E-02 ( -18.00%)
   displ. norm   :     0.4614771 α      lambda       -0.1284732E-02
   maximum displ.:     0.1777436 α      in ANC's #25, #15, #23, ...

........................................................................
.............................. CYCLE    6 ..............................
........................................................................
   1   -193.0798050 -0.193080E+03  0.865E-02    2.20       0.0  T
   2   -193.0798218 -0.167897E-04  0.482E-02    2.21       1.0  T
   3   -193.0798198  0.199805E-05  0.104E-02    2.21       1.0  T
   4   -193.0798272 -0.737874E-05  0.395E-03    2.21       2.2  T
   5   -193.0798274 -0.195318E-06  0.129E-03    2.21       6.9  T
   6   -193.0798274 -0.483773E-07  0.775E-04    2.21      11.4  T
   7   -193.0798274 -0.654043E-08  0.562E-04    2.21      15.7  T
     SCC iter.                  ...        0 min,  1.221 sec
     gradient                   ...        0 min,  0.161 sec
 * total energy  :  -190.3034776 Eh     change       -0.9658732E-03 Eh
   gradient norm :     0.0108770 Eh/α   predicted    -0.7792008E-03 ( -19.33%)
   displ. norm   :     0.4723851 α      lambda       -0.9949903E-03
   maximum displ.:     0.1908699 α      in ANC's #25, #15, #22, ...

........................................................................
.............................. CYCLE    7 ..............................
........................................................................
   1   -193.0805398 -0.193081E+03  0.900E-02    2.21       0.0  T
   2   -193.0805573 -0.174902E-04  0.497E-02    2.22       1.0  T
   3   -193.0805585 -0.124783E-05  0.868E-03    2.22       1.0  T
   4   -193.0805624 -0.390414E-05  0.416E-03    2.22       2.1  T
   5   -193.0805627 -0.304323E-06  0.144E-03    2.22       6.1  T
   6   -193.0805628 -0.477723E-07  0.947E-04    2.22       9.3  T
   7   -193.0805628 -0.876653E-08  0.680E-04    2.22      13.0  T
     SCC iter.                  ...        0 min,  0.419 sec
     gradient                   ...        0 min,  0.098 sec
 * total energy  :  -190.3042242 Eh     change       -0.7466465E-03 Eh
   gradient norm :     0.0091044 Eh/α   predicted    -0.6085315E-03 ( -18.50%)
   displ. norm   :     0.4526943 α      lambda       -0.7402634E-03
   maximum displ.:     0.1820112 α      in ANC's #25, #15, #22, ...

........................................................................
.............................. CYCLE    8 ..............................
........................................................................
   1   -193.0835631 -0.193084E+03  0.915E-02    2.22       0.0  T
   2   -193.0835802 -0.170852E-04  0.506E-02    2.22       1.0  T
   3   -193.0835820 -0.181857E-05  0.826E-03    2.22       1.1  T
   4   -193.0835852 -0.317469E-05  0.422E-03    2.22       2.1  T
   5   -193.0835856 -0.364539E-06  0.150E-03    2.22       5.9  T
   6   -193.0835856 -0.439105E-07  0.105E-03    2.22       8.4  T
   7   -193.0835856 -0.115243E-07  0.741E-04    2.22      11.9  T
   8   -193.0835856 -0.128925E-07  0.333E-04    2.22      26.5  T
     SCC iter.                  ...        0 min,  0.406 sec
     gradient                   ...        0 min,  0.085 sec
 * total energy  :  -190.3047768 Eh     change       -0.5525890E-03 Eh
   gradient norm :     0.0069237 Eh/α   predicted    -0.4459841E-03 ( -19.29%)
   displ. norm   :     0.4264601 α      lambda       -0.5453461E-03
   maximum displ.:     0.1793909 α      in ANC's #15, #25, #22, ...

........................................................................
.............................. CYCLE    9 ..............................
........................................................................
   1   -193.0873738 -0.193087E+03  0.895E-02    2.22       0.0  T
   2   -193.0873894 -0.156206E-04  0.496E-02    2.23       1.0  T
   3   -193.0873919 -0.244483E-05  0.741E-03    2.23       1.2  T
   4   -193.0873941 -0.224645E-05  0.387E-03    2.23       2.3  T
   5   -193.0873945 -0.321129E-06  0.128E-03    2.23       6.9  T
   6   -193.0873945 -0.334385E-07  0.918E-04    2.23       9.6  T
   7   -193.0873945 -0.878080E-08  0.627E-04    2.23      14.1  T
     SCC iter.                  ...        0 min,  0.386 sec
     gradient                   ...        0 min,  0.096 sec
 * total energy  :  -190.3051859 Eh     change       -0.4090926E-03 Eh
   gradient norm :     0.0059355 Eh/α   predicted    -0.3222645E-03 ( -21.22%)
   displ. norm   :     0.4085135 α      lambda       -0.4307157E-03
   maximum displ.:     0.1836191 α      in ANC's #15, #25, #12, ...

........................................................................
.............................. CYCLE   10 ..............................
........................................................................
   1   -193.0896923 -0.193090E+03  0.862E-02    2.23       0.0  T
   2   -193.0897066 -0.142287E-04  0.481E-02    2.23       1.0  T
   3   -193.0897093 -0.272001E-05  0.656E-03    2.23       1.3  T
   4   -193.0897107 -0.145227E-05  0.357E-03    2.23       2.5  T
   5   -193.0897111 -0.324936E-06  0.117E-03    2.23       7.5  T
   6   -193.0897111 -0.304337E-07  0.818E-04    2.23      10.8  T
   7   -193.0897111 -0.649180E-08  0.539E-04    2.23      16.4  T
     SCC iter.                  ...        0 min,  0.383 sec
     gradient                   ...        0 min,  0.104 sec
 * total energy  :  -190.3055133 Eh     change       -0.3274181E-03 Eh
   gradient norm :     0.0048826 Eh/α   predicted    -0.2513013E-03 ( -23.25%)
   displ. norm   :     0.4107284 α      lambda       -0.3775198E-03
   maximum displ.:     0.1908426 α      in ANC's #15, #5, #12, ...

........................................................................
.............................. CYCLE   11 ..............................
........................................................................
   1   -193.0904393 -0.193090E+03  0.816E-02    2.23       0.0  T
   2   -193.0904517 -0.124647E-04  0.456E-02    2.24       1.0  T
   3   -193.0904540 -0.227579E-05  0.625E-03    2.24       1.4  T
   4   -193.0904555 -0.149443E-05  0.331E-03    2.24       2.7  T
   5   -193.0904558 -0.256860E-06  0.115E-03    2.24       7.7  T
   6   -193.0904558 -0.261317E-07  0.792E-04    2.24      11.2  T
   7   -193.0904558 -0.547948E-08  0.506E-04    2.24      17.5  T
     SCC iter.                  ...        0 min,  0.428 sec
     gradient                   ...        0 min,  0.102 sec
 * total energy  :  -190.3057963 Eh     change       -0.2830193E-03 Eh
   gradient norm :     0.0047897 Eh/α   predicted    -0.2206152E-03 ( -22.05%)
   displ. norm   :     0.4022370 α      lambda       -0.3169284E-03
   maximum displ.:     0.1885369 α      in ANC's #15, #5, #12, ...

........................................................................
.............................. CYCLE   12 ..............................
........................................................................
   1   -193.0894693 -0.193089E+03  0.749E-02    2.24       0.0  T
   2   -193.0894789 -0.957322E-05  0.420E-02    2.24       1.0  T
   3   -193.0894806 -0.173009E-05  0.573E-03    2.24       1.5  T
   4   -193.0894817 -0.111229E-05  0.316E-03    2.24       2.8  T
   5   -193.0894820 -0.264548E-06  0.122E-03    2.24       7.2  T
   6   -193.0894820 -0.210728E-07  0.880E-04    2.24      10.0  T
   7   -193.0894820 -0.761401E-08  0.535E-04    2.24      16.5  T
     SCC iter.                  ...        0 min,  0.394 sec
     gradient                   ...        0 min,  0.115 sec
 * total energy  :  -190.3060319 Eh     change       -0.2355150E-03 Eh
   gradient norm :     0.0049315 Eh/α   predicted    -0.1841058E-03 ( -21.83%)
   displ. norm   :     0.3909564 α      lambda       -0.2674546E-03
   maximum displ.:     0.1802373 α      in ANC's #15, #5, #12, ...

........................................................................
.............................. CYCLE   13 ..............................
........................................................................
   1   -193.0883542 -0.193088E+03  0.692E-02    2.25       0.0  T
   2   -193.0883609 -0.673569E-05  0.388E-02    2.25       1.0  T
   3   -193.0883622 -0.128360E-05  0.534E-03    2.25       1.7  T
   4   -193.0883630 -0.831969E-06  0.307E-03    2.25       2.9  T
   5   -193.0883632 -0.236940E-06  0.135E-03    2.25       6.6  T
   6   -193.0883633 -0.185005E-07  0.101E-03    2.25       8.8  T
   7   -193.0883633 -0.113182E-07  0.506E-04    2.25      17.5  T
   8   -193.0883633 -0.772656E-08  0.182E-04    2.25      48.5  T
     SCC iter.                  ...        0 min,  0.458 sec
     gradient                   ...        0 min,  0.103 sec
 * total energy  :  -190.3062289 Eh     change       -0.1970125E-03 Eh
   gradient norm :     0.0044950 Eh/α   predicted    -0.1541715E-03 ( -21.75%)
   displ. norm   :     0.3572220 α      lambda       -0.2236869E-03
   maximum displ.:     0.1591678 α      in ANC's #15, #5, #12, ...

........................................................................
.............................. CYCLE   14 ..............................
........................................................................
   1   -193.0880461 -0.193088E+03  0.611E-02    2.26       0.0  T
   2   -193.0880502 -0.409250E-05  0.340E-02    2.26       1.0  T
   3   -193.0880510 -0.848426E-06  0.480E-03    2.26       1.8  T
   4   -193.0880515 -0.484201E-06  0.290E-03    2.26       3.0  T
   5   -193.0880517 -0.218001E-06  0.136E-03    2.26       6.5  T
   6   -193.0880517 -0.164825E-07  0.101E-03    2.26       8.7  T
   7   -193.0880518 -0.150959E-07  0.424E-04    2.26      20.8  T
   8   -193.0880518 -0.672517E-08  0.160E-04    2.26      55.2  T
     SCC iter.                  ...        0 min,  0.458 sec
     gradient                   ...        0 min,  0.102 sec
 * total energy  :  -190.3063988 Eh     change       -0.1699326E-03 Eh
   gradient norm :     0.0038030 Eh/α   predicted    -0.1261161E-03 ( -25.78%)
   displ. norm   :     0.3726232 α      lambda       -0.2140859E-03
   maximum displ.:     0.1563661 α      in ANC's #5, #15, #6, ...

........................................................................
.............................. CYCLE   15 ..............................
........................................................................
   1   -193.0882649 -0.193088E+03  0.649E-02    2.26       0.0  T
   2   -193.0882689 -0.392650E-05  0.360E-02    2.26       1.0  T
   3   -193.0882699 -0.101864E-05  0.504E-03    2.26       1.8  T
   4   -193.0882701 -0.241918E-06  0.314E-03    2.26       2.8  T
   5   -193.0882704 -0.287905E-06  0.155E-03    2.26       5.7  T
   6   -193.0882704 -0.226610E-07  0.115E-03    2.26       7.7  T
   7   -193.0882704 -0.222466E-07  0.393E-04    2.26      22.5  T
   8   -193.0882705 -0.702360E-08  0.176E-04    2.26      50.2  T
     SCC iter.                  ...        0 min,  0.434 sec
     gradient                   ...        0 min,  0.113 sec
 * total energy  :  -190.3065579 Eh     change       -0.1590474E-03 Eh
   gradient norm :     0.0036425 Eh/α   predicted    -0.1219102E-03 ( -23.35%)
   displ. norm   :     0.3546392 α      lambda       -0.1834152E-03
   maximum displ.:     0.1564666 α      in ANC's #5, #15, #6, ...

........................................................................
.............................. CYCLE   16 ..............................
........................................................................
   1   -193.0897365 -0.193090E+03  0.609E-02    2.27       0.0  T
   2   -193.0897394 -0.295888E-05  0.334E-02    2.27       1.0  T
   3   -193.0897401 -0.704857E-06  0.504E-03    2.27       1.8  T
   4   -193.0897404 -0.254966E-06  0.318E-03    2.27       2.8  T
   5   -193.0897407 -0.287773E-06  0.161E-03    2.27       5.5  T
   6   -193.0897407 -0.225603E-07  0.114E-03    2.27       7.8  T
   7   -193.0897407 -0.254133E-07  0.416E-04    2.27      21.3  T
   8   -193.0897407 -0.641245E-08  0.188E-04    2.27      47.1  T
     SCC iter.                  ...        0 min,  0.427 sec
     gradient                   ...        0 min,  0.109 sec
 * total energy  :  -190.3066889 Eh     change       -0.1309972E-03 Eh
   gradient norm :     0.0044759 Eh/α   predicted    -0.1032627E-03 ( -21.17%)
   displ. norm   :     0.3493124 α      lambda       -0.1492190E-03
   maximum displ.:     0.1591546 α      in ANC's #5, #15, #9, ...

........................................................................
.............................. CYCLE   17 ..............................
........................................................................
   1   -193.0898692 -0.193090E+03  0.585E-02    2.27       0.0  T
   2   -193.0898716 -0.239323E-05  0.320E-02    2.27       1.0  T
   3   -193.0898722 -0.605638E-06  0.490E-03    2.27       1.8  T
   4   -193.0898724 -0.177944E-06  0.304E-03    2.27       2.9  T
   5   -193.0898727 -0.281597E-06  0.158E-03    2.27       5.6  T
   6   -193.0898727 -0.225476E-07  0.111E-03    2.27       7.9  T
   7   -193.0898727 -0.249948E-07  0.370E-04    2.27      23.9  T
   8   -193.0898727 -0.588665E-08  0.180E-04    2.27      49.1  T
     SCC iter.                  ...        0 min,  0.448 sec
     gradient                   ...        0 min,  0.112 sec
 * total energy  :  -190.3067922 Eh     change       -0.1033204E-03 Eh
   gradient norm :     0.0035973 Eh/α   predicted    -0.8371703E-04 ( -18.97%)
   displ. norm   :     0.2619154 α      lambda       -0.1109921E-03
   maximum displ.:     0.1255423 α      in ANC's #5, #9, #6, ...

........................................................................
.............................. CYCLE   18 ..............................
........................................................................
   1   -193.0922198 -0.193092E+03  0.451E-02    2.27       0.0  T
   2   -193.0922210 -0.120724E-05  0.247E-02    2.27       1.0  T
   3   -193.0922212 -0.183316E-06  0.395E-03    2.27       2.2  T
   4   -193.0922215 -0.246049E-06  0.249E-03    2.27       3.6  T
   5   -193.0922216 -0.143394E-06  0.126E-03    2.27       7.0  T
   6   -193.0922216 -0.148161E-07  0.936E-04    2.27       9.4  T
   7   -193.0922216 -0.183768E-07  0.311E-04    2.27      28.5  T
     SCC iter.                  ...        0 min,  0.400 sec
     gradient                   ...        0 min,  0.110 sec
 * total energy  :  -190.3068725 Eh     change       -0.8032399E-04 Eh
   gradient norm :     0.0039201 Eh/α   predicted    -0.5930614E-04 ( -26.17%)
   displ. norm   :     0.2666699 α      lambda       -0.1082949E-03
   maximum displ.:     0.1328861 α      in ANC's #5, #9, #6, ...

........................................................................
.............................. CYCLE   19 ..............................
........................................................................
   1   -193.0913854 -0.193091E+03  0.424E-02    2.27       0.0  T
   2   -193.0913864 -0.103982E-05  0.233E-02    2.27       1.0  T
   3   -193.0913866 -0.152103E-06  0.367E-03    2.27       2.4  T
   4   -193.0913868 -0.197667E-06  0.231E-03    2.27       3.8  T
   5   -193.0913869 -0.127833E-06  0.121E-03    2.27       7.3  T
   6   -193.0913869 -0.145892E-07  0.901E-04    2.27       9.8  T
   7   -193.0913869 -0.142500E-07  0.348E-04    2.27      25.4  T
     SCC iter.                  ...        0 min,  0.489 sec
     gradient                   ...        0 min,  0.124 sec
 * total energy  :  -190.3069488 Eh     change       -0.7626279E-04 Eh
   gradient norm :     0.0030986 Eh/α   predicted    -0.5799969E-04 ( -23.95%)
   displ. norm   :     0.2496688 α      lambda       -0.1038416E-03
   maximum displ.:     0.1226526 α      in ANC's #5, #9, #6, ...

........................................................................
.............................. CYCLE   20 ..............................
........................................................................
   1   -193.0931296 -0.193093E+03  0.471E-02    2.27       0.0  T
   2   -193.0931316 -0.206508E-05  0.260E-02    2.27       1.0  T
   3   -193.0931320 -0.398786E-06  0.374E-03    2.26       2.4  T
   4   -193.0931323 -0.260833E-06  0.227E-03    2.26       3.9  T
   5   -193.0931324 -0.129061E-06  0.103E-03    2.26       8.6  T
   6   -193.0931324 -0.944993E-08  0.771E-04    2.26      11.5  T
   7   -193.0931324 -0.103106E-07  0.306E-04    2.26      28.8  T
     SCC iter.                  ...        0 min,  0.408 sec
     gradient                   ...        0 min,  0.106 sec
 * total energy  :  -190.3070201 Eh     change       -0.7133532E-04 Eh
   gradient norm :     0.0045302 Eh/α   predicted    -0.5516254E-04 ( -22.67%)
   displ. norm   :     0.2318781 α      lambda       -0.9012761E-04
   maximum displ.:     0.1195886 α      in ANC's #5, #6, #9, ...
 * RMSD in coord.:     0.4795190 α      energy gain  -0.3966970E-01 Eh

generating ANC from model Hessian ...
Using Lindh-Hessian (1995)
 Shifting diagonal of input Hessian by    9.9803677788442846E-003
 Lowest  eigenvalues of input Hessian
    0.000000    0.000000    0.000000    0.000000    0.000000    0.000000
    0.010000    0.010018    0.010101    0.010145    0.010235    0.010302
    0.010353    0.010397    0.010641    0.010660    0.010814    0.010876
 Highest eigenvalues
    2.145902    2.147766    2.156739    2.163480    2.166103    2.170360


........................................................................
.............................. CYCLE   21 ..............................
........................................................................
   1   -193.0911126 -0.193091E+03  0.389E-02    2.26       0.0  T
   2   -193.0911140 -0.137162E-05  0.216E-02    2.26       1.0  T
   3   -193.0911142 -0.232617E-06  0.310E-03    2.26       2.9  T
   4   -193.0911144 -0.190371E-06  0.194E-03    2.26       4.6  T
   5   -193.0911145 -0.105772E-06  0.896E-04    2.26       9.9  T
   6   -193.0911145 -0.727010E-08  0.668E-04    2.26      13.2  T
     SCC iter.                  ...        0 min,  0.287 sec
     gradient                   ...        0 min,  0.082 sec
 * total energy  :  -190.3070838 Eh     change       -0.6370087E-04 Eh
   gradient norm :     0.0035231 Eh/α   predicted     0.0000000E+00 (-100.00%)
   displ. norm   :     0.0383038 α      lambda       -0.3506371E-04
   maximum displ.:     0.0142137 α      in ANC's #5, #24, #3, ...

........................................................................
.............................. CYCLE   22 ..............................
........................................................................
   1   -193.0912470 -0.193091E+03  0.812E-03    2.26       0.0  T
   2   -193.0912471 -0.824464E-07  0.471E-03    2.26       1.9  T
   3   -193.0912470  0.433247E-07  0.953E-04    2.26       9.3  T
   4   -193.0912471 -0.706846E-07  0.347E-04    2.26      25.5  T
     SCC iter.                  ...        0 min,  0.271 sec
     gradient                   ...        0 min,  0.119 sec
 * total energy  :  -190.3071139 Eh     change       -0.3007867E-04 Eh
   gradient norm :     0.0018721 Eh/α   predicted    -0.1880268E-04 ( -37.49%)
   displ. norm   :     0.1603186 α      lambda       -0.6129449E-04
   maximum displ.:     0.0648772 α      in ANC's #5, #24, #3, ...

........................................................................
.............................. CYCLE   23 ..............................
........................................................................
   1   -193.0912216 -0.193091E+03  0.292E-02    2.26       0.0  T
   2   -193.0912225 -0.925946E-06  0.168E-02    2.26       1.0  T
   3   -193.0912224  0.111076E-06  0.246E-03    2.26       3.6  T
   4   -193.0912228 -0.406708E-06  0.110E-03    2.26       8.1  T
   5   -193.0912228 -0.184731E-07  0.577E-04    2.26      15.3  T
   6   -193.0912228 -0.549295E-08  0.417E-04    2.26      21.2  T
     SCC iter.                  ...        0 min,  0.328 sec
     gradient                   ...        0 min,  0.111 sec
 * total energy  :  -190.3071526 Eh     change       -0.3868918E-04 Eh
   gradient norm :     0.0032583 Eh/α   predicted    -0.3099755E-04 ( -19.88%)
   displ. norm   :     0.0281077 α      lambda       -0.1600323E-04
   maximum displ.:     0.0143573 α      in ANC's #5, #3, #6, ...

........................................................................
.............................. CYCLE   24 ..............................
........................................................................
   1   -193.0912063 -0.193091E+03  0.425E-03    2.26       0.0  T
   2   -193.0912063 -0.355817E-07  0.239E-03    2.26       3.7  T
   3   -193.0912063  0.519600E-08  0.483E-04    2.26      18.3  T
   4   -193.0912063 -0.154162E-07  0.190E-04    2.26      46.5  T
     SCC iter.                  ...        0 min,  0.228 sec
     gradient                   ...        0 min,  0.114 sec
 * total energy  :  -190.3071667 Eh     change       -0.1415243E-04 Eh
   gradient norm :     0.0022473 Eh/α   predicted    -0.8008935E-05 ( -43.41%)
   displ. norm   :     0.1316878 α      lambda       -0.5118643E-04
   maximum displ.:     0.0655699 α      in ANC's #5, #3, #6, ...

........................................................................
.............................. CYCLE   25 ..............................
........................................................................
   1   -193.0911550 -0.193091E+03  0.178E-02    2.26       0.0  T
   2   -193.0911555 -0.512758E-06  0.997E-03    2.26       1.0  T
   3   -193.0911555 -0.283173E-07  0.156E-03    2.26       5.7  T
   4   -193.0911556 -0.124286E-06  0.729E-04    2.26      12.1  T
   5   -193.0911556 -0.812037E-08  0.299E-04    2.26      29.6  T
     SCC iter.                  ...        0 min,  0.278 sec
     gradient                   ...        0 min,  0.108 sec
 * total energy  :  -190.3072010 Eh     change       -0.3427984E-04 Eh
   gradient norm :     0.0014512 Eh/α   predicted    -0.2605975E-04 ( -23.98%)
   displ. norm   :     0.1879728 α      lambda       -0.2299139E-04
   maximum displ.:     0.0949543 α      in ANC's #5, #3, #6, ...

........................................................................
.............................. CYCLE   26 ..............................
........................................................................
   1   -193.0908672 -0.193091E+03  0.225E-02    2.26       0.0  T
   2   -193.0908680 -0.735738E-06  0.126E-02    2.26       1.0  T
   3   -193.0908681 -0.175022E-06  0.148E-03    2.26       6.0  T
   4   -193.0908682 -0.507032E-07  0.806E-04    2.26      11.0  T
   5   -193.0908682 -0.160539E-07  0.272E-04    2.26      32.6  T
     SCC iter.                  ...        0 min,  0.287 sec
     gradient                   ...        0 min,  0.107 sec
 * total energy  :  -190.3072258 Eh     change       -0.2478083E-04 Eh
   gradient norm :     0.0026948 Eh/α   predicted    -0.1167757E-04 ( -52.88%)
   displ. norm   :     0.1225246 α      lambda       -0.2317690E-04
   maximum displ.:     0.0627743 α      in ANC's #5, #3, #6, ...

........................................................................
.............................. CYCLE   27 ..............................
........................................................................
   1   -193.0908298 -0.193091E+03  0.123E-02    2.26       0.0  T
   2   -193.0908300 -0.227774E-06  0.694E-03    2.26       1.3  T
   3   -193.0908301 -0.367039E-07  0.891E-04    2.26       9.9  T
   4   -193.0908301 -0.347086E-07  0.481E-04    2.26      18.4  T
     SCC iter.                  ...        0 min,  0.215 sec
     gradient                   ...        0 min,  0.100 sec
 * total energy  :  -190.3072462 Eh     change       -0.2043189E-04 Eh
   gradient norm :     0.0020106 Eh/α   predicted    -0.1176270E-04 ( -42.43%)
   displ. norm   :     0.2284091 α      lambda       -0.4132501E-04
   maximum displ.:     0.1176879 α      in ANC's #5, #3, #6, ...

........................................................................
.............................. CYCLE   28 ..............................
........................................................................
   1   -193.0907716 -0.193091E+03  0.202E-02    2.26       0.0  T
   2   -193.0907722 -0.631487E-06  0.115E-02    2.26       1.0  T
   3   -193.0907723 -0.277128E-07  0.171E-03    2.26       5.2  T
   4   -193.0907724 -0.175454E-06  0.810E-04    2.26      10.9  T
   5   -193.0907725 -0.118327E-07  0.332E-04    2.26      26.7  T
     SCC iter.                  ...        0 min,  0.282 sec
     gradient                   ...        0 min,  0.099 sec
 * total energy  :  -190.3072785 Eh     change       -0.3228625E-04 Eh
   gradient norm :     0.0008814 Eh/α   predicted    -0.2174281E-04 ( -32.66%)
   displ. norm   :     0.3521754 α      lambda       -0.3132509E-04
   maximum displ.:     0.1828667 α      in ANC's #5, #3, #6, ...

........................................................................
.............................. CYCLE   29 ..............................
........................................................................
   1   -193.0906074 -0.193091E+03  0.286E-02    2.26       0.0  T
   2   -193.0906087 -0.123007E-05  0.162E-02    2.25       1.0  T
   3   -193.0906087 -0.574163E-07  0.235E-03    2.26       3.8  T
   4   -193.0906091 -0.335397E-06  0.110E-03    2.25       8.1  T
   5   -193.0906091 -0.218700E-07  0.424E-04    2.25      20.9  T
   6   -193.0906091 -0.348800E-08  0.288E-04    2.25      30.7  T
     SCC iter.                  ...        0 min,  0.317 sec
     gradient                   ...        0 min,  0.107 sec
 * total energy  :  -190.3073102 Eh     change       -0.3175104E-04 Eh
   gradient norm :     0.0021315 Eh/α   predicted    -0.1652840E-04 ( -47.94%)
   displ. norm   :     0.1339741 α      lambda       -0.1999196E-04
   maximum displ.:     0.0694402 α      in ANC's #5, #3, #6, ...

........................................................................
.............................. CYCLE   30 ..............................
........................................................................
   1   -193.0909410 -0.193091E+03  0.110E-02    2.26       0.0  T
   2   -193.0909412 -0.171775E-06  0.622E-03    2.26       1.4  T
   3   -193.0909412 -0.294910E-07  0.806E-04    2.26      11.0  T
   4   -193.0909412 -0.239760E-07  0.440E-04    2.25      20.1  T
     SCC iter.                  ...        0 min,  0.223 sec
     gradient                   ...        0 min,  0.105 sec
 * total energy  :  -190.3073285 Eh     change       -0.1827157E-04 Eh
   gradient norm :     0.0019378 Eh/α   predicted    -0.1017591E-04 ( -44.31%)
   displ. norm   :     0.4211606 α      lambda       -0.5158854E-04
   maximum displ.:     0.2127593 α      in ANC's #5, #3, #6, ...

........................................................................
.............................. CYCLE   31 ..............................
........................................................................
   1   -193.0918132 -0.193092E+03  0.408E-02    2.26       0.0  T
   2   -193.0918156 -0.241259E-05  0.229E-02    2.26       1.0  T
   3   -193.0918160 -0.425826E-06  0.307E-03    2.26       2.9  T
   4   -193.0918163 -0.318134E-06  0.173E-03    2.26       5.1  T
   5   -193.0918164 -0.685660E-07  0.712E-04    2.26      12.4  T
   6   -193.0918164 -0.814086E-08  0.549E-04    2.26      16.1  T
     SCC iter.                  ...        0 min,  0.392 sec
     gradient                   ...        0 min,  0.131 sec
 * total energy  :  -190.3073829 Eh     change       -0.5437870E-04 Eh
   gradient norm :     0.0009749 Eh/α   predicted    -0.2783146E-04 ( -48.82%)
   displ. norm   :     0.3224950 α      lambda       -0.2472736E-04
   maximum displ.:     0.1627164 α      in ANC's #5, #3, #2, ...

........................................................................
.............................. CYCLE   32 ..............................
........................................................................
   1   -193.0915260 -0.193092E+03  0.283E-02    2.26       0.0  T
   2   -193.0915271 -0.114077E-05  0.159E-02    2.26       1.0  T
   3   -193.0915273 -0.141998E-06  0.240E-03    2.26       3.7  T
   4   -193.0915275 -0.227934E-06  0.136E-03    2.26       6.5  T
   5   -193.0915275 -0.370351E-07  0.642E-04    2.26      13.8  T
   6   -193.0915275 -0.569230E-08  0.501E-04    2.26      17.6  T
     SCC iter.                  ...        0 min,  0.404 sec
     gradient                   ...        0 min,  0.108 sec
 * total energy  :  -190.3074111 Eh     change       -0.2816246E-04 Eh
   gradient norm :     0.0010221 Eh/α   predicted    -0.1293607E-04 ( -54.07%)
   displ. norm   :     0.2721464 α      lambda       -0.2315951E-04
   maximum displ.:     0.1386790 α      in ANC's #3, #5, #2, ...

........................................................................
.............................. CYCLE   33 ..............................
........................................................................
   1   -193.0919357 -0.193092E+03  0.246E-02    2.26       0.0  T
   2   -193.0919365 -0.778738E-06  0.138E-02    2.26       1.0  T
   3   -193.0919366 -0.109297E-06  0.206E-03    2.26       4.3  T
   4   -193.0919368 -0.145859E-06  0.120E-03    2.26       7.4  T
   5   -193.0919368 -0.315851E-07  0.560E-04    2.26      15.8  T
   6   -193.0919368 -0.392203E-08  0.443E-04    2.26      19.9  T
     SCC iter.                  ...        0 min,  0.221 sec
     gradient                   ...        0 min,  0.043 sec
 * total energy  :  -190.3074390 Eh     change       -0.2797916E-04 Eh
   gradient norm :     0.0011463 Eh/α   predicted    -0.1196234E-04 ( -57.25%)
   displ. norm   :     0.3358190 α      lambda       -0.3015492E-04
   maximum displ.:     0.1719571 α      in ANC's #3, #5, #2, ...

........................................................................
.............................. CYCLE   34 ..............................
........................................................................
   1   -193.0916203 -0.193092E+03  0.298E-02    2.26       0.0  T
   2   -193.0916214 -0.105746E-05  0.168E-02    2.26       1.0  T
   3   -193.0916215 -0.156145E-06  0.227E-03    2.26       3.9  T
   4   -193.0916217 -0.173363E-06  0.129E-03    2.26       6.8  T
   5   -193.0916217 -0.465726E-07  0.559E-04    2.26      15.8  T
   6   -193.0916218 -0.363650E-08  0.439E-04    2.26      20.1  T
     SCC iter.                  ...        0 min,  0.331 sec
     gradient                   ...        0 min,  0.099 sec
 * total energy  :  -190.3074736 Eh     change       -0.3453331E-04 Eh
   gradient norm :     0.0010986 Eh/α   predicted    -0.1583627E-04 ( -54.14%)
   displ. norm   :     0.3293715 α      lambda       -0.2756746E-04
   maximum displ.:     0.1694650 α      in ANC's #3, #5, #2, ...

........................................................................
.............................. CYCLE   35 ..............................
........................................................................
   1   -193.0912495 -0.193091E+03  0.312E-02    2.26       0.0  T
   2   -193.0912508 -0.130752E-05  0.175E-02    2.26       1.0  T
   3   -193.0912510 -0.216182E-06  0.237E-03    2.26       3.7  T
   4   -193.0912512 -0.158480E-06  0.133E-03    2.26       6.6  T
   5   -193.0912513 -0.640927E-07  0.496E-04    2.26      17.8  T
   6   -193.0912513 -0.275296E-08  0.384E-04    2.26      23.0  T
     SCC iter.                  ...        0 min,  0.323 sec
     gradient                   ...        0 min,  0.097 sec
 * total energy  :  -190.3075028 Eh     change       -0.2924389E-04 Eh
   gradient norm :     0.0009171 Eh/α   predicted    -0.1445323E-04 ( -50.58%)
   displ. norm   :     0.2690752 α      lambda       -0.1998572E-04
   maximum displ.:     0.1395160 α      in ANC's #3, #5, #2, ...

........................................................................
.............................. CYCLE   36 ..............................
........................................................................
   1   -193.0912455 -0.193091E+03  0.256E-02    2.26       0.0  T
   2   -193.0912465 -0.104782E-05  0.144E-02    2.26       1.0  T
   3   -193.0912467 -0.141626E-06  0.198E-03    2.26       4.5  T
   4   -193.0912468 -0.160427E-06  0.106E-03    2.26       8.3  T
   5   -193.0912468 -0.348383E-07  0.354E-04    2.26      24.9  T
   6   -193.0912468 -0.195038E-08  0.261E-04    2.26      33.9  T
     SCC iter.                  ...        0 min,  0.326 sec
     gradient                   ...        0 min,  0.104 sec
 * total energy  :  -190.3075249 Eh     change       -0.2204879E-04 Eh
   gradient norm :     0.0007728 Eh/α   predicted    -0.1031948E-04 ( -53.20%)
   displ. norm   :     0.2509530 α      lambda       -0.1875862E-04
   maximum displ.:     0.1306249 α      in ANC's #3, #5, #2, ...

........................................................................
.............................. CYCLE   37 ..............................
........................................................................
   1   -193.0911699 -0.193091E+03  0.242E-02    2.26       0.0  T
   2   -193.0911709 -0.103998E-05  0.135E-02    2.26       1.0  T
   3   -193.0911710 -0.101927E-06  0.212E-03    2.26       4.2  T
   4   -193.0911712 -0.203867E-06  0.111E-03    2.26       7.9  T
   5   -193.0911713 -0.283328E-07  0.376E-04    2.26      23.5  T
   6   -193.0911713 -0.228766E-08  0.278E-04    2.26      31.8  T
     SCC iter.                  ...        0 min,  0.324 sec
     gradient                   ...        0 min,  0.102 sec
 * total energy  :  -190.3075469 Eh     change       -0.2205018E-04 Eh
   gradient norm :     0.0007864 Eh/α   predicted    -0.9642871E-05 ( -56.27%)
   displ. norm   :     0.2900852 α      lambda       -0.2182869E-04
   maximum displ.:     0.1493821 α      in ANC's #3, #2, #5, ...

........................................................................
.............................. CYCLE   38 ..............................
........................................................................
   1   -193.0914369 -0.193091E+03  0.274E-02    2.26       0.0  T
   2   -193.0914382 -0.126770E-05  0.151E-02    2.26       1.0  T
   3   -193.0914383 -0.103971E-06  0.256E-03    2.26       3.5  T
   4   -193.0914386 -0.286274E-06  0.138E-03    2.26       6.4  T
   5   -193.0914386 -0.366646E-07  0.524E-04    2.26      16.9  T
   6   -193.0914386 -0.386999E-08  0.399E-04    2.26      22.2  T
     SCC iter.                  ...        0 min,  0.341 sec
     gradient                   ...        0 min,  0.110 sec
 * total energy  :  -190.3075715 Eh     change       -0.2461699E-04 Eh
   gradient norm :     0.0008553 Eh/α   predicted    -0.1132291E-04 ( -54.00%)
   displ. norm   :     0.3089391 α      lambda       -0.1972329E-04
   maximum displ.:     0.1598810 α      in ANC's #3, #2, #4, ...

........................................................................
.............................. CYCLE   39 ..............................
........................................................................
   1   -193.0914269 -0.193091E+03  0.262E-02    2.25       0.0  T
   2   -193.0914278 -0.948605E-06  0.145E-02    2.26       1.0  T
   3   -193.0914279 -0.102954E-06  0.233E-03    2.26       3.8  T
   4   -193.0914281 -0.196191E-06  0.133E-03    2.26       6.6  T
   5   -193.0914282 -0.366948E-07  0.564E-04    2.26      15.7  T
   6   -193.0914282 -0.371304E-08  0.429E-04    2.26      20.6  T
     SCC iter.                  ...        0 min,  0.455 sec
     gradient                   ...        0 min,  0.153 sec
 * total energy  :  -190.3075935 Eh     change       -0.2194311E-04 Eh
   gradient norm :     0.0008259 Eh/α   predicted    -0.1028379E-04 ( -53.13%)
   displ. norm   :     0.2953312 α      lambda       -0.1682567E-04
   maximum displ.:     0.1522882 α      in ANC's #3, #2, #4, ...

........................................................................
.............................. CYCLE   40 ..............................
........................................................................
   1   -193.0917260 -0.193092E+03  0.251E-02    2.25       0.0  T
   2   -193.0917268 -0.726516E-06  0.137E-02    2.25       1.0  T
   3   -193.0917269 -0.127261E-06  0.206E-03    2.25       4.3  T
   4   -193.0917270 -0.986248E-07  0.126E-03    2.25       7.0  T
   5   -193.0917270 -0.442962E-07  0.551E-04    2.25      16.0  T
   6   -193.0917270 -0.282719E-08  0.414E-04    2.25      21.4  T
     SCC iter.                  ...        0 min,  0.501 sec
     gradient                   ...        0 min,  0.162 sec
 * total energy  :  -190.3076125 Eh     change       -0.1904191E-04 Eh
   gradient norm :     0.0007128 Eh/α   predicted    -0.8739600E-05 ( -54.10%)
   displ. norm   :     0.2846312 α      lambda       -0.1585793E-04
   maximum displ.:     0.1466283 α      in ANC's #3, #2, #4, ...

........................................................................
.............................. CYCLE   41 ..............................
........................................................................
   1   -193.0920760 -0.193092E+03  0.241E-02    2.25       0.0  T
   2   -193.0920767 -0.665036E-06  0.133E-02    2.25       1.0  T
   3   -193.0920768 -0.125327E-06  0.189E-03    2.25       4.7  T
   4   -193.0920769 -0.818600E-07  0.114E-03    2.25       7.7  T
   5   -193.0920769 -0.377324E-07  0.504E-04    2.25      17.5  T
   6   -193.0920769 -0.263191E-08  0.376E-04    2.25      23.5  T
     SCC iter.                  ...        0 min,  0.290 sec
     gradient                   ...        0 min,  0.085 sec
 * total energy  :  -190.3076311 Eh     change       -0.1861934E-04 Eh
   gradient norm :     0.0007267 Eh/α   predicted    -0.8217097E-05 ( -55.87%)
   displ. norm   :     0.3214073 α      lambda       -0.1728792E-04
   maximum displ.:     0.1657063 α      in ANC's #3, #2, #4, ...

........................................................................
.............................. CYCLE   42 ..............................
........................................................................
   1   -193.0919585 -0.193092E+03  0.275E-02    2.25       0.0  T
   2   -193.0919595 -0.990039E-06  0.152E-02    2.25       1.0  T
   3   -193.0919596 -0.129576E-06  0.228E-03    2.25       3.9  T
   4   -193.0919598 -0.181090E-06  0.129E-03    2.25       6.9  T
   5   -193.0919598 -0.384307E-07  0.537E-04    2.25      16.5  T
   6   -193.0919598 -0.350880E-08  0.397E-04    2.25      22.3  T
     SCC iter.                  ...        0 min,  0.466 sec
     gradient                   ...        0 min,  0.144 sec
 * total energy  :  -190.3076506 Eh     change       -0.1948040E-04 Eh
   gradient norm :     0.0007889 Eh/α   predicted    -0.9043576E-05 ( -53.58%)
   displ. norm   :     0.3077503 α      lambda       -0.1481577E-04
   maximum displ.:     0.1571410 α      in ANC's #3, #2, #4, ...
 * RMSD in coord.:     0.4297822 α      energy gain  -0.6305208E-03 Eh

generating ANC from model Hessian ...
Using Lindh-Hessian (1995)
 Shifting diagonal of input Hessian by    9.9801620741981675E-003
 Lowest  eigenvalues of input Hessian
    0.000000    0.000000    0.000000    0.000000    0.000000    0.000000
    0.010000    0.010016    0.010102    0.010121    0.010221    0.010304
    0.010364    0.010389    0.010622    0.010639    0.010800    0.010867
 Highest eigenvalues
    2.146533    2.148850    2.158898    2.162793    2.166801    2.170272


........................................................................
.............................. CYCLE   43 ..............................
........................................................................
   1   -193.0920058 -0.193092E+03  0.243E-02    2.25       0.0  T
   2   -193.0920066 -0.782765E-06  0.135E-02    2.25       1.0  T
   3   -193.0920066 -0.674178E-07  0.210E-03    2.25       4.2  T
   4   -193.0920068 -0.186929E-06  0.113E-03    2.25       7.8  T
   5   -193.0920069 -0.254831E-07  0.481E-04    2.25      18.4  T
   6   -193.0920069 -0.292073E-08  0.351E-04    2.25      25.2  T
     SCC iter.                  ...        0 min,  0.380 sec
     gradient                   ...        0 min,  0.102 sec
 * total energy  :  -190.3076677 Eh     change       -0.1704829E-04 Eh
   gradient norm :     0.0006835 Eh/α   predicted     0.0000000E+00 (-100.00%)
   displ. norm   :     0.0299997 α      lambda       -0.5191011E-06
   maximum displ.:     0.0128456 α      in ANC's #6, #15, #20, ...

........................................................................
.............................. CYCLE   44 ..............................
........................................................................
   1   -193.0920478 -0.193092E+03  0.597E-03    2.25       0.0  T
   2   -193.0920479 -0.560707E-07  0.336E-03    2.25       2.6  T
   3   -193.0920479 -0.162498E-08  0.556E-04    2.25      15.9  T
   4   -193.0920479 -0.154651E-07  0.288E-04    2.25      30.7  T
     SCC iter.                  ...        0 min,  0.331 sec
     gradient                   ...        0 min,  0.167 sec
 * total energy  :  -190.3076752 Eh     change       -0.7553475E-05 Eh
   gradient norm :     0.0004155 Eh/α   predicted    -0.3028577E-05 ( -59.90%)
   displ. norm   :     0.1297752 α      lambda       -0.1963580E-04
   maximum displ.:     0.0563725 α      in ANC's #6, #15, #20, ...

........................................................................
.............................. CYCLE   45 ..............................
........................................................................
   1   -193.0918416 -0.193092E+03  0.232E-02    2.25       0.0  T
   2   -193.0918425 -0.855826E-06  0.130E-02    2.25       1.0  T
   3   -193.0918426 -0.118279E-06  0.197E-03    2.25       4.5  T
   4   -193.0918427 -0.141006E-06  0.113E-03    2.25       7.8  T
   5   -193.0918428 -0.285374E-07  0.472E-04    2.25      18.7  T
   6   -193.0918428 -0.272715E-08  0.361E-04    2.25      24.5  T
     SCC iter.                  ...        0 min,  0.493 sec
     gradient                   ...        0 min,  0.170 sec
 * total energy  :  -190.3076935 Eh     change       -0.1826667E-04 Eh
   gradient norm :     0.0011256 Eh/α   predicted    -0.9898938E-05 ( -45.81%)
   displ. norm   :     0.0815489 α      lambda       -0.7119830E-05
   maximum displ.:     0.0404421 α      in ANC's #6, #15, #2, ...

........................................................................
.............................. CYCLE   46 ..............................
........................................................................
   1   -193.0915734 -0.193092E+03  0.109E-02    2.25       0.0  T
   2   -193.0915736 -0.165870E-06  0.608E-03    2.25       1.5  T
   3   -193.0915736 -0.339784E-07  0.910E-04    2.25       9.7  T
   4   -193.0915736 -0.188719E-07  0.570E-04    2.25      15.5  T
     SCC iter.                  ...        0 min,  0.309 sec
     gradient                   ...        0 min,  0.153 sec
 * total energy  :  -190.3077017 Eh     change       -0.8167935E-05 Eh
   gradient norm :     0.0008100 Eh/α   predicted    -0.3575787E-05 ( -56.22%)
   displ. norm   :     0.1029123 α      lambda       -0.8708648E-05
   maximum displ.:     0.0533417 α      in ANC's #6, #15, #2, ...

........................................................................
.............................. CYCLE   47 ..............................
........................................................................
   1   -193.0914629 -0.193091E+03  0.110E-02    2.25       0.0  T
   2   -193.0914630 -0.144719E-06  0.613E-03    2.25       1.4  T
   3   -193.0914630 -0.308818E-07  0.968E-04    2.25       9.1  T
   4   -193.0914631 -0.198696E-07  0.627E-04    2.25      14.1  T
     SCC iter.                  ...        0 min,  0.143 sec
     gradient                   ...        0 min,  0.043 sec
 * total energy  :  -190.3077126 Eh     change       -0.1090978E-04 Eh
   gradient norm :     0.0004627 Eh/α   predicted    -0.4386942E-05 ( -59.79%)
   displ. norm   :     0.1557106 α      lambda       -0.1260265E-04
   maximum displ.:     0.0824513 α      in ANC's #6, #2, #15, ...

........................................................................
.............................. CYCLE   48 ..............................
........................................................................
   1   -193.0914071 -0.193091E+03  0.160E-02    2.25       0.0  T
   2   -193.0914074 -0.320177E-06  0.887E-03    2.25       1.0  T
   3   -193.0914075 -0.503432E-07  0.143E-03    2.25       6.2  T
   4   -193.0914076 -0.575866E-07  0.872E-04    2.25      10.1  T
   5   -193.0914076 -0.149938E-07  0.436E-04    2.25      20.3  T
     SCC iter.                  ...        0 min,  0.275 sec
     gradient                   ...        0 min,  0.105 sec
 * total energy  :  -190.3077276 Eh     change       -0.1503281E-04 Eh
   gradient norm :     0.0008901 Eh/α   predicted    -0.6373038E-05 ( -57.61%)
   displ. norm   :     0.1945780 α      lambda       -0.1342604E-04
   maximum displ.:     0.1038378 α      in ANC's #6, #2, #4, ...

........................................................................
.............................. CYCLE   49 ..............................
........................................................................
   1   -193.0912715 -0.193091E+03  0.198E-02    2.25       0.0  T
   2   -193.0912720 -0.525734E-06  0.110E-02    2.25       1.0  T
   3   -193.0912721 -0.960570E-07  0.164E-03    2.25       5.4  T
   4   -193.0912722 -0.752235E-07  0.984E-04    2.25       9.0  T
   5   -193.0912722 -0.197381E-07  0.473E-04    2.25      18.7  T
     SCC iter.                  ...        0 min,  0.256 sec
     gradient                   ...        0 min,  0.100 sec
 * total energy  :  -190.3077434 Eh     change       -0.1584717E-04 Eh
   gradient norm :     0.0011984 Eh/α   predicted    -0.6827023E-05 ( -56.92%)
   displ. norm   :     0.2033782 α      lambda       -0.1315543E-04
   maximum displ.:     0.1091991 α      in ANC's #6, #2, #4, ...

........................................................................
.............................. CYCLE   50 ..............................
........................................................................
   1   -193.0913239 -0.193091E+03  0.212E-02    2.25       0.0  T
   2   -193.0913245 -0.614180E-06  0.117E-02    2.25       1.0  T
   3   -193.0913246 -0.110870E-06  0.175E-03    2.25       5.0  T
   4   -193.0913247 -0.855741E-07  0.104E-03    2.25       8.5  T
   5   -193.0913247 -0.228279E-07  0.467E-04    2.25      18.9  T
   6   -193.0913247 -0.259774E-08  0.346E-04    2.25      25.5  T
     SCC iter.                  ...        0 min,  0.333 sec
     gradient                   ...        0 min,  0.094 sec
 * total energy  :  -190.3077592 Eh     change       -0.1576008E-04 Eh
   gradient norm :     0.0010108 Eh/α   predicted    -0.6703362E-05 ( -57.47%)
   displ. norm   :     0.2273479 α      lambda       -0.1535543E-04
   maximum displ.:     0.1220443 α      in ANC's #6, #2, #4, ...

........................................................................
.............................. CYCLE   51 ..............................
........................................................................
   1   -193.0914372 -0.193091E+03  0.235E-02    2.25       0.0  T
   2   -193.0914379 -0.740568E-06  0.131E-02    2.25       1.0  T
   3   -193.0914381 -0.129033E-06  0.181E-03    2.25       4.9  T
   4   -193.0914382 -0.105496E-06  0.103E-03    2.25       8.6  T
   5   -193.0914382 -0.241301E-07  0.422E-04    2.25      20.9  T
   6   -193.0914382 -0.227141E-08  0.311E-04    2.25      28.4  T
     SCC iter.                  ...        0 min,  0.286 sec
     gradient                   ...        0 min,  0.087 sec
 * total energy  :  -190.3077776 Eh     change       -0.1842181E-04 Eh
   gradient norm :     0.0005744 Eh/α   predicted    -0.7856177E-05 ( -57.35%)
   displ. norm   :     0.2583929 α      lambda       -0.1664009E-04
   maximum displ.:     0.1375935 α      in ANC's #6, #2, #4, ...

........................................................................
.............................. CYCLE   52 ..............................
........................................................................
   1   -193.0914805 -0.193091E+03  0.262E-02    2.25       0.0  T
   2   -193.0914814 -0.853813E-06  0.146E-02    2.25       1.0  T
   3   -193.0914815 -0.169058E-06  0.198E-03    2.25       4.5  T
   4   -193.0914816 -0.982560E-07  0.116E-03    2.25       7.6  T
   5   -193.0914817 -0.343405E-07  0.486E-04    2.25      18.2  T
   6   -193.0914817 -0.289862E-08  0.363E-04    2.25      24.3  T
     SCC iter.                  ...        0 min,  0.384 sec
     gradient                   ...        0 min,  0.109 sec
 * total energy  :  -190.3077972 Eh     change       -0.1961690E-04 Eh
   gradient norm :     0.0005869 Eh/α   predicted    -0.8568258E-05 ( -56.32%)
   displ. norm   :     0.2575886 α      lambda       -0.1537129E-04
   maximum displ.:     0.1353770 α      in ANC's #6, #4, #2, ...

........................................................................
.............................. CYCLE   53 ..............................
........................................................................
   1   -193.0915619 -0.193092E+03  0.244E-02    2.25       0.0  T
   2   -193.0915626 -0.705086E-06  0.136E-02    2.25       1.0  T
   3   -193.0915627 -0.141017E-06  0.184E-03    2.25       4.8  T
   4   -193.0915628 -0.830831E-07  0.109E-03    2.25       8.1  T
   5   -193.0915629 -0.306239E-07  0.473E-04    2.25      18.7  T
   6   -193.0915629 -0.257450E-08  0.357E-04    2.25      24.8  T
     SCC iter.                  ...        0 min,  0.285 sec
     gradient                   ...        0 min,  0.088 sec
 * total energy  :  -190.3078157 Eh     change       -0.1844722E-04 Eh
   gradient norm :     0.0009095 Eh/α   predicted    -0.7915989E-05 ( -57.09%)
   displ. norm   :     0.2577672 α      lambda       -0.1564668E-04
   maximum displ.:     0.1324736 α      in ANC's #6, #4, #2, ...

........................................................................
.............................. CYCLE   54 ..............................
........................................................................
   1   -193.0915385 -0.193092E+03  0.226E-02    2.25       0.0  T
   2   -193.0915391 -0.581721E-06  0.127E-02    2.25       1.0  T
   3   -193.0915392 -0.126757E-06  0.168E-03    2.25       5.3  T
   4   -193.0915392 -0.583341E-07  0.101E-03    2.25       8.8  T
   5   -193.0915393 -0.267491E-07  0.452E-04    2.25      19.6  T
   6   -193.0915393 -0.229315E-08  0.338E-04    2.25      26.1  T
     SCC iter.                  ...        0 min,  0.496 sec
     gradient                   ...        0 min,  0.138 sec
 * total energy  :  -190.3078351 Eh     change       -0.1941375E-04 Eh
   gradient norm :     0.0009651 Eh/α   predicted    -0.8055086E-05 ( -58.51%)
   displ. norm   :     0.2700769 α      lambda       -0.1739323E-04
   maximum displ.:     0.1411092 α      in ANC's #4, #2, #6, ...

........................................................................
.............................. CYCLE   55 ..............................
........................................................................
   1   -193.0914167 -0.193091E+03  0.219E-02    2.24       0.0  T
   2   -193.0914173 -0.546232E-06  0.122E-02    2.24       1.0  T
   3   -193.0914174 -0.110964E-06  0.166E-03    2.24       5.3  T
   4   -193.0914175 -0.609712E-07  0.989E-04    2.24       8.9  T
   5   -193.0914175 -0.247789E-07  0.448E-04    2.24      19.7  T
     SCC iter.                  ...        0 min,  0.412 sec
     gradient                   ...        0 min,  0.185 sec
 * total energy  :  -190.3078564 Eh     change       -0.2134040E-04 Eh
   gradient norm :     0.0007511 Eh/α   predicted    -0.8979151E-05 ( -57.92%)
   displ. norm   :     0.2641455 α      lambda       -0.1700303E-04
   maximum displ.:     0.1414076 α      in ANC's #4, #2, #6, ...

........................................................................
.............................. CYCLE   56 ..............................
........................................................................
   1   -193.0912134 -0.193091E+03  0.196E-02    2.24       0.0  T
   2   -193.0912139 -0.463622E-06  0.110E-02    2.24       1.0  T
   3   -193.0912140 -0.571663E-07  0.156E-03    2.24       5.7  T
   4   -193.0912141 -0.932222E-07  0.900E-04    2.24       9.8  T
   5   -193.0912141 -0.171901E-07  0.432E-04    2.24      20.5  T
     SCC iter.                  ...        0 min,  0.419 sec
     gradient                   ...        0 min,  0.166 sec
 * total energy  :  -190.3078761 Eh     change       -0.1962894E-04 Eh
   gradient norm :     0.0004646 Eh/α   predicted    -0.8766259E-05 ( -55.34%)
   displ. norm   :     0.1926371 α      lambda       -0.1191345E-04
   maximum displ.:     0.1061851 α      in ANC's #2, #4, #6, ...

........................................................................
.............................. CYCLE   57 ..............................
........................................................................
   1   -193.0911212 -0.193091E+03  0.133E-02    2.24       0.0  T
   2   -193.0911215 -0.218561E-06  0.746E-03    2.24       1.2  T
   3   -193.0911215 -0.171906E-07  0.106E-03    2.24       8.4  T
   4   -193.0911215 -0.532621E-07  0.583E-04    2.24      15.2  T
   5   -193.0911215 -0.674441E-08  0.287E-04    2.24      30.8  T
     SCC iter.                  ...        0 min,  0.190 sec
     gradient                   ...        0 min,  0.045 sec
 * total energy  :  -190.3078894 Eh     change       -0.1337183E-04 Eh
   gradient norm :     0.0004529 Eh/α   predicted    -0.6055552E-05 ( -54.71%)
   displ. norm   :     0.1413590 α      lambda       -0.9309442E-05
   maximum displ.:     0.0798615 α      in ANC's #2, #4, #6, ...

........................................................................
.............................. CYCLE   58 ..............................
........................................................................
   1   -193.0911076 -0.193091E+03  0.101E-02    2.24       0.0  T
   2   -193.0911077 -0.131977E-06  0.575E-03    2.24       1.5  T
   3   -193.0911077 -0.129188E-08  0.771E-04    2.24      11.5  T
   4   -193.0911078 -0.407087E-07  0.369E-04    2.24      23.9  T
     SCC iter.                  ...        0 min,  0.180 sec
     gradient                   ...        0 min,  0.086 sec
 * total energy  :  -190.3079002 Eh     change       -0.1074351E-04 Eh
   gradient norm :     0.0005478 Eh/α   predicted    -0.4699024E-05 ( -56.26%)
   displ. norm   :     0.1310700 α      lambda       -0.9360151E-05
   maximum displ.:     0.0734629 α      in ANC's #2, #4, #15, ...

........................................................................
.............................. CYCLE   59 ..............................
........................................................................
   1   -193.0911139 -0.193091E+03  0.115E-02    2.24       0.0  T
   2   -193.0911141 -0.165197E-06  0.654E-03    2.24       1.4  T
   3   -193.0911141 -0.976809E-08  0.854E-04    2.24      10.3  T
   4   -193.0911141 -0.444189E-07  0.438E-04    2.24      20.2  T
     SCC iter.                  ...        0 min,  0.230 sec
     gradient                   ...        0 min,  0.138 sec
 * total energy  :  -190.3079109 Eh     change       -0.1075686E-04 Eh
   gradient norm :     0.0005604 Eh/α   predicted    -0.4717834E-05 ( -56.14%)
   displ. norm   :     0.1326891 α      lambda       -0.9029246E-05
   maximum displ.:     0.0721966 α      in ANC's #2, #4, #15, ...

........................................................................
.............................. CYCLE   60 ..............................
........................................................................
   1   -193.0911727 -0.193091E+03  0.141E-02    2.24       0.0  T
   2   -193.0911730 -0.248472E-06  0.794E-03    2.24       1.1  T
   3   -193.0911730 -0.406661E-07  0.103E-03    2.24       8.6  T
   4   -193.0911730 -0.365085E-07  0.597E-04    2.24      14.8  T
   5   -193.0911730 -0.103932E-07  0.257E-04    2.24      34.4  T
     SCC iter.                  ...        0 min,  0.436 sec
     gradient                   ...        0 min,  0.152 sec
 * total energy  :  -190.3079207 Eh     change       -0.9754477E-05 Eh
   gradient norm :     0.0004524 Eh/α   predicted    -0.4554112E-05 ( -53.31%)
   displ. norm   :     0.1101008 α      lambda       -0.6626174E-05
   maximum displ.:     0.0588404 α      in ANC's #2, #4, #5, ...

........................................................................
.............................. CYCLE   61 ..............................
........................................................................
   1   -193.0913305 -0.193091E+03  0.125E-02    2.24       0.0  T
   2   -193.0913307 -0.183349E-06  0.711E-03    2.24       1.2  T
   3   -193.0913307 -0.321182E-07  0.886E-04    2.24      10.0  T
   4   -193.0913307 -0.257471E-07  0.507E-04    2.24      17.4  T
     SCC iter.                  ...        0 min,  0.294 sec
     gradient                   ...        0 min,  0.122 sec
 * total energy  :  -190.3079276 Eh     change       -0.6902412E-05 Eh
   gradient norm :     0.0003244 Eh/α   predicted    -0.3335118E-05 ( -51.68%)
   displ. norm   :     0.0805514 α      lambda       -0.4775316E-05
   maximum displ.:     0.0432144 α      in ANC's #2, #4, #5, ...

........................................................................
.............................. CYCLE   62 ..............................
........................................................................
   1   -193.0914382 -0.193091E+03  0.890E-03    2.24       0.0  T
   2   -193.0914383 -0.738622E-07  0.504E-03    2.24       1.8  T
   3   -193.0914383 -0.147344E-07  0.622E-04    2.24      14.2  T
   4   -193.0914383 -0.861024E-08  0.370E-04    2.24      23.9  T
     SCC iter.                  ...        0 min,  0.219 sec
     gradient                   ...        0 min,  0.116 sec
 * total energy  :  -190.3079330 Eh     change       -0.5408867E-05 Eh
   gradient norm :     0.0003076 Eh/α   predicted    -0.2396444E-05 ( -55.69%)
   displ. norm   :     0.0849418 α      lambda       -0.5124223E-05
   maximum displ.:     0.0452404 α      in ANC's #2, #4, #5, ...

........................................................................
.............................. CYCLE   63 ..............................
........................................................................
   1   -193.0915522 -0.193092E+03  0.928E-03    2.24       0.0  T
   2   -193.0915522 -0.578862E-07  0.525E-03    2.24       1.7  T
   3   -193.0915522 -0.100669E-07  0.637E-04    2.24      13.9  T
   4   -193.0915522 -0.845100E-08  0.373E-04    2.24      23.7  T
     SCC iter.                  ...        0 min,  0.261 sec
     gradient                   ...        0 min,  0.132 sec
 * total energy  :  -190.3079389 Eh     change       -0.5940913E-05 Eh
   gradient norm :     0.0003824 Eh/α   predicted    -0.2574998E-05 ( -56.66%)
   displ. norm   :     0.1002386 α      lambda       -0.5575187E-05
   maximum displ.:     0.0539734 α      in ANC's #2, #4, #5, ...

........................................................................
.............................. CYCLE   64 ..............................
........................................................................
   1   -193.0915529 -0.193092E+03  0.105E-02    2.24       0.0  T
   2   -193.0915530 -0.709417E-07  0.588E-03    2.24       1.5  T
   3   -193.0915530 -0.137439E-07  0.753E-04    2.24      11.7  T
   4   -193.0915530 -0.906491E-08  0.455E-04    2.24      19.4  T
[...]
     2   6 C    3.996 --     1 C    1.010    10 C    1.009    72 H    0.976
                            71 H    0.976
     3   6 C    3.995 --     4 C    1.005    11 C    1.002    73 H    0.981
                            74 H    0.979
     4   6 C    3.996 --    12 C    1.011     3 C    1.005    76 H    0.978
                            75 H    0.977
     5   6 C    3.996 --     6 C    1.009    13 C    1.008    77 H    0.977
                            78 H    0.976
     6   6 C    3.996 --     5 C    1.009    14 C    1.008    80 H    0.977
                            79 H    0.976
     7   6 C    3.997 --    15 C    1.012     8 C    1.000    81 H    0.978
                            82 H    0.977
     8   6 C    3.995 --    16 C    1.007     7 C    1.000    84 H    0.978
                            83 H    0.978
     9   6 C    3.992 --     1 C    1.009    49 C    0.984    86 H    0.975
                            85 H    0.973
    10   6 C    3.991 --     2 C    1.009    50 C    0.979    88 H    0.975
                            87 H    0.973
    11   6 C    3.988 --     3 C    1.002    89 H    0.978    90 H    0.977
                            51 C    0.963
    12   6 C    3.991 --     4 C    1.011    92 H    0.976    91 H    0.975
                            52 C    0.974
    13   6 C    3.991 --     5 C    1.008    53 C    0.984    93 H    0.974
                            94 H    0.973
    14   6 C    3.991 --     6 C    1.008    54 C    0.984    95 H    0.975
                            96 H    0.973
    15   6 C    3.988 --     7 C    1.012    97 H    0.975    98 H    0.971
                            55 C    0.959
    16   6 C    3.989 --     8 C    1.007   100 H    0.976    99 H    0.974
                            56 C    0.967
    17   6 C    3.980 --    37 C    1.396    39 C    1.377   101 H    0.961
    18   6 C    3.980 --    38 C    1.387    40 C    1.387   102 H    0.959
    19   6 C    3.981 --    41 C    1.399    43 C    1.378   103 H    0.963
    20   6 C    3.984 --    42 C    1.395    44 C    1.377   104 H    0.962
    21   6 C    3.980 --    45 C    1.431    37 C    1.353   105 H    0.962
    22   6 C    3.977 --    46 C    1.423    38 C    1.360   106 H    0.963
    23   6 C    3.978 --    45 C    1.410    39 C    1.375   107 H    0.964
    24   6 C    3.982 --    46 C    1.421    40 C    1.361   108 H    0.965
    25   6 C    3.980 --    47 C    1.432    41 C    1.353   109 H    0.961
    26   6 C    3.980 --    48 C    1.430    42 C    1.354   110 H    0.961
    27   6 C    3.978 --    47 C    1.411    43 C    1.373   111 H    0.964
    28   6 C    3.977 --    48 C    1.410    44 C    1.373   112 H    0.964
    29   6 C    3.967 --    61 N    1.841    37 C    1.082   113 H    0.934
    30   6 C    3.970 --    62 N    1.841    38 C    1.082   114 H    0.933
    31   6 C    3.967 --    63 N    1.844    39 C    1.076   115 H    0.939
    32   6 C    3.971 --    64 N    1.812    40 C    1.081   116 H    0.938
    33   6 C    3.968 --    65 N    1.846    41 C    1.077   117 H    0.937
    34   6 C    3.967 --    66 N    1.812    42 C    1.081   118 H    0.938
    35   6 C    3.969 --    67 N    1.835    43 C    1.077   119 H    0.934
    36   6 C    3.966 --    68 N    1.840    44 C    1.079   120 H    0.939
    37   6 C    3.989 --    17 C    1.396    21 C    1.353    29 C    1.082
    38   6 C    3.988 --    18 C    1.387    22 C    1.360    30 C    1.082
    39   6 C    3.988 --    17 C    1.377    23 C    1.375    31 C    1.076
    40   6 C    3.988 --    18 C    1.387    24 C    1.361    32 C    1.081
    41   6 C    3.989 --    19 C    1.399    25 C    1.353    33 C    1.077
    42   6 C    3.989 --    20 C    1.395    26 C    1.354    34 C    1.081
    43   6 C    3.988 --    19 C    1.378    27 C    1.373    35 C    1.077
    44   6 C    3.988 --    20 C    1.377    28 C    1.373    36 C    1.079
    45   6 C    3.935 --    21 C    1.431    23 C    1.410    57 Br   0.970
    46   6 C    3.933 --    22 C    1.423    24 C    1.421    58 Br   0.965
    47   6 C    3.935 --    25 C    1.432    27 C    1.411    59 Br   0.968
    48   6 C    3.935 --    26 C    1.430    28 C    1.410    60 Br   0.971
    49   6 C    3.974 --    61 N    1.023     9 C    0.984   121 H    0.951
                            50 C    0.919
    50   6 C    3.974 --    62 N    1.026    10 C    0.979   122 H    0.951
                            49 C    0.919
    51   6 C    3.976 --    63 N    1.023    11 C    0.963   123 H    0.953
                            52 C    0.941
    52   6 C    3.978 --    65 N    1.023    12 C    0.974   124 H    0.954
                            51 C    0.941
    53   6 C    3.975 --    64 N    1.038    13 C    0.984   125 H    0.952
                            54 C    0.890
    54   6 C    3.975 --    66 N    1.038    14 C    0.984   126 H    0.952
                            53 C    0.890
    55   6 C    3.977 --    67 N    1.026    15 C    0.959   127 H    0.952
                            56 C    0.947
    56   6 C    3.979 --    68 N    1.021    16 C    0.967   128 H    0.951
                            55 C    0.947
    57  35 Br   1.095 --    45 C    0.970
    58  35 Br   1.095 --    46 C    0.965
    59  35 Br   1.093 --    47 C    0.968
    60  35 Br   1.096 --    48 C    0.971
    61   7 N    3.075 --    29 C    1.841    49 C    1.023
    62   7 N    3.077 --    30 C    1.841    50 C    1.026
    63   7 N    3.075 --    31 C    1.844    51 C    1.023
    64   7 N    3.068 --    32 C    1.812    53 C    1.038
    65   7 N    3.077 --    33 C    1.846    52 C    1.023
    66   7 N    3.066 --    34 C    1.812    54 C    1.038
    67   7 N    3.078 --    35 C    1.835    55 C    1.026
    68   7 N    3.074 --    36 C    1.840    56 C    1.021
    69   1 H    0.998 --     1 C    0.976
    70   1 H    0.998 --     1 C    0.976
    71   1 H    0.997 --     2 C    0.976
    72   1 H    0.998 --     2 C    0.976
    73   1 H    0.998 --     3 C    0.981
    74   1 H    0.997 --     3 C    0.979
    75   1 H    0.997 --     4 C    0.977
    76   1 H    0.998 --     4 C    0.978
    77   1 H    0.998 --     5 C    0.977
    78   1 H    0.997 --     5 C    0.976
    79   1 H    0.997 --     6 C    0.976
    80   1 H    0.998 --     6 C    0.977
    81   1 H    0.999 --     7 C    0.978
    82   1 H    0.998 --     7 C    0.977
    83   1 H    0.996 --     8 C    0.978
    84   1 H    0.999 --     8 C    0.978
    85   1 H    0.997 --     9 C    0.973
    86   1 H    0.998 --     9 C    0.975
    87   1 H    0.997 --    10 C    0.973
    88   1 H    0.998 --    10 C    0.975
    89   1 H    0.998 --    11 C    0.978
    90   1 H    0.997 --    11 C    0.977
    91   1 H    0.997 --    12 C    0.975
    92   1 H    0.997 --    12 C    0.976
    93   1 H    0.997 --    13 C    0.974
    94   1 H    0.997 --    13 C    0.973
    95   1 H    0.997 --    14 C    0.975
    96   1 H    0.997 --    14 C    0.973
    97   1 H    0.997 --    15 C    0.975
    98   1 H    0.996 --    15 C    0.971
    99   1 H    0.997 --    16 C    0.974
   100   1 H    0.999 --    16 C    0.976
   101   1 H    0.994 --    17 C    0.961
   102   1 H    0.990 --    18 C    0.959
   103   1 H    0.994 --    19 C    0.963
   104   1 H    0.994 --    20 C    0.962
   105   1 H    0.992 --    21 C    0.962
   106   1 H    0.995 --    22 C    0.963
   107   1 H    0.995 --    23 C    0.964
   108   1 H    0.996 --    24 C    0.965
   109   1 H    0.992 --    25 C    0.961
   110   1 H    0.992 --    26 C    0.961
   111   1 H    0.995 --    27 C    0.964
   112   1 H    0.994 --    28 C    0.964
   113   1 H    0.999 --    29 C    0.934
   114   1 H    0.999 --    30 C    0.933
   115   1 H    0.999 --    31 C    0.939
   116   1 H    0.999 --    32 C    0.938
   117   1 H    0.999 --    33 C    0.937
   118   1 H    0.999 --    34 C    0.938
   119   1 H    0.999 --    35 C    0.934
   120   1 H    0.999 --    36 C    0.939
   121   1 H    1.000 --    49 C    0.951
   122   1 H    1.000 --    50 C    0.951
   123   1 H    0.999 --    51 C    0.953
   124   1 H    1.000 --    52 C    0.954
   125   1 H    0.999 --    53 C    0.952
   126   1 H    0.999 --    54 C    0.952
   127   1 H    0.997 --    55 C    0.952
   128   1 H    1.000 --    56 C    0.951
 ---------------------------------------------------------------------------

Topologies differ in total number of bonds
Writing topology from bond orders to xtbtopo.mol

molecular dipole:
                 x           y           z       tot (Debye)
 q only:       -1.541      -0.997       0.920
   full:       -1.390      -0.624       0.636       4.197
molecular quadrupole (traceless):
                xx          xy          yy          xz          yz          zz
 q only:       -9.409      -2.493      37.975      39.221     -24.901     -28.566
  q+dip:       -2.252      -9.892      38.520      59.744     -24.318     -36.267
   full:        2.826     -13.703      32.359      63.332     -26.601     -35.185

           -------------------------------------------------
          |                Geometry Summary                 |
           -------------------------------------------------

      molecular mass/u    :     1164.7453922
   center of mass at/Å    :        0.6139262       0.4166697      -0.3176179
  moments of inertia/u·Å² :        0.1951953E+05   0.4030431E+05   0.5142660E+05
rotational constants/cm⁻¹ :        0.8636291E-03   0.4182588E-03   0.3277999E-03

 * 119 selected distances

     #   Z          #   Z                                           value/Å
     1   6 C        2   6 C                                       1.5231707
     3   6 C        4   6 C                                       1.5333384
     5   6 C        6   6 C                                       1.5257087
     7   6 C        8   6 C                                       1.5395156
     1   6 C        9   6 C                                       1.5226509
     2   6 C       10   6 C                                       1.5224841
     3   6 C       11   6 C                                       1.5327311
     4   6 C       12   6 C                                       1.5234455
     5   6 C       13   6 C                                       1.5248903
     6   6 C       14   6 C                                       1.5250076
     7   6 C       15   6 C                                       1.5260799
     8   6 C       16   6 C                                       1.5247957
    17   6 C       37   6 C                                       1.3898835
    21   6 C       37   6 C                                       1.3964682
    18   6 C       38   6 C                                       1.3916252
    22   6 C       38   6 C                                       1.3969250
    17   6 C       39   6 C                                       1.3921090
    23   6 C       39   6 C                                       1.3934960
    18   6 C       40   6 C                                       1.3917981
    24   6 C       40   6 C                                       1.3965584
    19   6 C       41   6 C                                       1.3908052
    25   6 C       41   6 C                                       1.3972628
    20   6 C       42   6 C                                       1.3906900
    26   6 C       42   6 C                                       1.3967775
    19   6 C       43   6 C                                       1.3939793
    27   6 C       43   6 C                                       1.3948941
    20   6 C       44   6 C                                       1.3933245
    28   6 C       44   6 C                                       1.3942422
    21   6 C       45   6 C                                       1.3809785
    23   6 C       45   6 C                                       1.3851176
    22   6 C       46   6 C                                       1.3795721
    24   6 C       46   6 C                                       1.3802872
    25   6 C       47   6 C                                       1.3791463
    27   6 C       47   6 C                                       1.3832755
    26   6 C       48   6 C                                       1.3804813
    28   6 C       48   6 C                                       1.3840723
     9   6 C       49   6 C                                       1.5279758
    10   6 C       50   6 C                                       1.5302988
    11   6 C       51   6 C                                       1.5327744
    12   6 C       52   6 C                                       1.5381453
    13   6 C       53   6 C                                       1.5254638
    14   6 C       54   6 C                                       1.5257194
    15   6 C       55   6 C                                       1.5389768
    16   6 C       56   6 C                                       1.5368859
    45   6 C       57  35 Br                                      1.9166576
    46   6 C       58  35 Br                                      1.9117957
    47   6 C       59  35 Br                                      1.9168125 (max)
    48   6 C       60  35 Br                                      1.9163046
    29   6 C       61   7 N                                       1.2622529
    30   6 C       62   7 N                                       1.2623166
    50   6 C       62   7 N                                       1.4301224
    31   6 C       63   7 N                                       1.2624786
    32   6 C       64   7 N                                       1.2659303
    53   6 C       64   7 N                                       1.4259171
    33   6 C       65   7 N                                       1.2616864
    34   6 C       66   7 N                                       1.2667139
    54   6 C       66   7 N                                       1.4267815
    35   6 C       67   7 N                                       1.2633540
    36   6 C       68   7 N                                       1.2622562
     1   6 C       69   1 H                                       1.0914541
     1   6 C       70   1 H                                       1.0910994
     2   6 C       71   1 H                                       1.0910169
     2   6 C       72   1 H                                       1.0915968
     3   6 C       73   1 H                                       1.0914237
     3   6 C       74   1 H                                       1.0912726
     4   6 C       75   1 H                                       1.0908931
     4   6 C       76   1 H                                       1.0907894
     5   6 C       77   1 H                                       1.0925022
     5   6 C       78   1 H                                       1.0913442
     6   6 C       79   1 H                                       1.0913673
     6   6 C       80   1 H                                       1.0923857
     7   6 C       81   1 H                                       1.0924309
     7   6 C       82   1 H                                       1.0909142
     8   6 C       83   1 H                                       1.0909125
     8   6 C       84   1 H                                       1.0924154
     9   6 C       85   1 H                                       1.0914276
     9   6 C       86   1 H                                       1.0922722
    10   6 C       87   1 H                                       1.0914321
    10   6 C       88   1 H                                       1.0921299
    11   6 C       89   1 H                                       1.0908979
    11   6 C       90   1 H                                       1.0918869
    12   6 C       91   1 H                                       1.0913184
    12   6 C       92   1 H                                       1.0905889
    13   6 C       93   1 H                                       1.0909444
    13   6 C       94   1 H                                       1.0918173
    14   6 C       95   1 H                                       1.0911900
    14   6 C       96   1 H                                       1.0918891
    15   6 C       97   1 H                                       1.0915180
    15   6 C       98   1 H                                       1.0892243
    16   6 C       99   1 H                                       1.0905975
    16   6 C      100   1 H                                       1.0928063
    17   6 C      101   1 H                                       1.0783727
    18   6 C      102   1 H                                       1.0772304 (min)
    19   6 C      103   1 H                                       1.0784500
    20   6 C      104   1 H                                       1.0786260
    21   6 C      105   1 H                                       1.0779316
    22   6 C      106   1 H                                       1.0796544
    23   6 C      107   1 H                                       1.0794425
    24   6 C      108   1 H                                       1.0795178
    25   6 C      109   1 H                                       1.0778840
    26   6 C      110   1 H                                       1.0781640
    27   6 C      111   1 H                                       1.0797669
    28   6 C      112   1 H                                       1.0795123
    29   6 C      113   1 H                                       1.1022576
    30   6 C      114   1 H                                       1.1017133
    31   6 C      115   1 H                                       1.0990147
    32   6 C      116   1 H                                       1.1004388
    33   6 C      117   1 H                                       1.0996124
    34   6 C      118   1 H                                       1.0991654
    35   6 C      119   1 H                                       1.0961557
    36   6 C      120   1 H                                       1.0997349
    49   6 C      121   1 H                                       1.1095270
    50   6 C      122   1 H                                       1.1102848
    51   6 C      123   1 H                                       1.1014807
    52   6 C      124   1 H                                       1.1042275
    53   6 C      125   1 H                                       1.1038287
    54   6 C      126   1 H                                       1.1032471
    55   6 C      127   1 H                                       1.0975523
    56   6 C      128   1 H                                       1.1050253

 * 4 distinct bonds (by element types)

   Z      Z             #   av. dist./Å        max./Å        min./Å
   1 H    6 C          60     1.0917263     1.1102848     1.0772304
   6 C    6 C          44     1.4530416     1.5395156     1.3791463
   6 C    7 N          11     1.3081645     1.4301224     1.2616864
   6 C   35 Br          4     1.9153926     1.9168125     1.9117957


optimized geometry written to: xtbopt.xyz


           -------------------------------------------------
          | TOTAL ENERGY             -190.307973704471 Eh   |
          | GRADIENT NORM               0.000267584541 Eh/α |
          | HOMO-LUMO GAP               2.240605233514 eV   |
           -------------------------------------------------

------------------------------------------------------------------------
 * finished run on 2022/04/01 at 14:33:10.538     
------------------------------------------------------------------------
 total:
 * wall-time:     0 d,  0 h,  0 min, 41.151 sec
 *  cpu-time:     0 d,  0 h, 24 min, 29.422 sec
 * ratio c/w:    35.708 speedup
 SCF:
 * wall-time:     0 d,  0 h,  0 min,  0.985 sec
 *  cpu-time:     0 d,  0 h,  0 min, 35.449 sec
 * ratio c/w:    35.998 speedup
 ANC optimizer:
 * wall-time:     0 d,  0 h,  0 min, 40.087 sec
 *  cpu-time:     0 d,  0 h, 23 min, 51.172 sec
 * ratio c/w:    35.701 speedup

