3
 energy: -5.074009815017 gnorm: 0.000153491731 xtb: 6.4.1 (23d549d)
O        -0.00008601881752    0.38371741820500    0.00000000000000
H        -0.77049662597883   -0.19203072535298    0.00000000000000
H         0.77058164479635   -0.19168669285201    0.00000000000000
