128
 energy: -190.307973704471 gnorm: 0.000267584541 xtb: 6.4.1 (23d549d)
C        -4.12104035978607   -2.38586894511668    3.29240639886056
C        -2.67175402905389   -2.84195227973882    3.40013750773689
C        -3.37954979597817    9.84182107958097   -1.11036546870321
C        -2.07362291522360    9.63297893043702   -1.88629495093596
C        -2.00661040073041   -9.50746176911040   -2.21253960405720
C        -0.82729483879116  -10.09705254308553   -1.44482570410612
C         4.05309286389929    0.92076881369604    3.01125561297877
C         5.39637827741552    0.46005812126481    2.41674896152729
C        -4.35833677028467   -1.76981877479052    1.92031374903275
C        -1.74885835320569   -1.63997065774213    3.25363932588194
C        -3.84491685177437    8.54850395320506   -0.43211106218603
C        -2.00794765634891    8.21828530698917   -2.44773495139196
C        -2.08133739899935   -7.99887927818314   -2.00305195192588
C         0.47675065251048   -9.43116045750926   -1.87108998966402
C         2.86730420607541    0.17713969739203    2.40311008142319
C         5.22828943640024   -0.72503720546819    1.47213420049834
C        -3.56885555073431    4.11888555568240    2.00320822341721
C        -0.45042040680642   -3.14778327026052   -1.47840683985777
C         1.61523420324416    4.09137531879089   -0.33228623269997
C         3.29947019557590   -4.15233693318861   -1.48202338832467
C        -4.13761926853781    2.96952131799633    4.03975673029103
C         0.76514396927691   -1.12451145390125   -1.97504424330783
C        -3.77957902214002    5.36514632372219    4.04763794271579
C         0.96731638999763   -3.03980684646564   -3.42560020467763
C         2.18622101508909    6.41394881016094   -0.62438929978245
C         3.72005417854040   -5.72537629078286   -3.25682490782311
C         3.90619036485989    4.79848555007676   -0.11374036003899
C         4.89627268629540   -3.61346414050731   -3.20162618441883
C        -3.75911570275878    1.68717505859025    1.93315120613259
C        -0.66315451640778   -1.16049086122414    0.00907748037015
C        -3.10437930246185    6.53577313229351    1.96181504530604
C        -0.15892081854613   -5.15260729494187   -2.92591531393456
C        -0.16764112549608    5.71317026897282   -0.89206838268396
C         1.99008823599533   -6.22875525887247   -1.54896130744332
C         3.37939263768715    2.42626818126823    0.24657065107277
C         4.48210829345577   -1.97753948322275   -1.40102498102710
C        -3.85702099163989    2.93516883083165    2.67220124702592
C        -0.12043138853422   -1.83383659330051   -1.16017389580036
C        -3.50532911671359    5.33275234098159    2.68177975467742
C         0.08890073749310   -3.75495895752817   -2.60870431332084
C         1.22660500117752    5.39850369864004   -0.60563920501800
C         3.03688175739070   -5.37525731070738   -2.08991466909367
C         2.95115556590985    3.78232234582502   -0.08133054727540
C         4.22211338332980   -3.26489228170767   -2.03204582449920
C        -4.10920417499750    4.18531335133243    4.69408379193797
C         1.29537240018723   -1.74202891842241   -3.08893342262280
C         3.50565756211075    6.09543653872860   -0.38009107630276
C         4.63688268247495   -4.84025508819219   -3.78759281426816
C        -3.43585716274147   -0.58201726743496    1.65037114014274
C        -1.94223532209963   -0.92004053088488    1.91718114693300
C        -2.63924646032194    7.68873195798805   -0.03644911669891
C        -1.94176922496991    7.17605517615701   -1.31845736904823
C        -0.78710031597746   -7.32555945509286   -2.44873180382749
C         0.41544348535040   -7.92371334920698   -1.64379230679040
C         2.90859007588689    0.17755537126210    0.86468719194500
C         4.24066004023172   -0.41651410080488    0.33572758848522
Br       -4.50910149191330    4.24280404021281    6.56767747157931
Br        2.53327904561435   -0.77892374319307   -4.18208414913500
Br        4.82587096695948    7.48477913750754   -0.41065067078083
Br        5.56465726145773   -5.31237676079090   -5.39649270673302
N        -3.74610258020743    0.54723725495565    2.47505059056372
N        -1.45614426811209   -1.70603739848860    0.82577168684588
N        -3.06543216268501    6.53779403825525    0.69993896976820
N        -0.81045427947136   -5.92805468538452   -2.16646484614682
N        -0.56967194057607    6.90313305409987   -1.01128421902773
N         1.59510189527668   -7.28378537047531   -2.12815147955383
N         2.54711855935132    1.48984652931483    0.40935193004094
N         3.93418231122762   -1.65961039905261   -0.30924253372861
H        -4.79769171831927   -3.23073440381990    3.43246809858909
H        -4.33143873081114   -1.64420895572765    4.06452740518438
H        -2.45351115126191   -3.56382563310019    2.61172969990165
H        -2.49436047589280   -3.31940344588728    4.36561948648181
H        -3.23126645618680   10.62017687610086   -0.35977901846448
H        -4.16443961386276   10.18306072666546   -1.78740274264382
H        -2.00496586384170   10.35848478110687   -2.69806781995780
H        -1.21455319972538    9.78605521967897   -1.23178111315994
H        -1.88908289585513   -9.71983290444809   -3.27773767489791
H        -2.93759454419791   -9.96868251988515   -1.87850941553188
H        -0.76391294924458  -11.17146348197089   -1.62567502826697
H        -0.97840681119344   -9.94399788550302   -0.37382337264098
H         3.92221239974316    1.99294749076053    2.84782839279033
H         4.04073777557745    0.75805581891973    4.08989629332495
H         6.08412381891404    0.17358103535830    3.21363481643918
H         5.86672530199667    1.28056679912892    1.87002188139958
H        -4.16577565623034   -2.51638282267724    1.14780066743386
H        -5.39281651096418   -1.43228884729722    1.82553096716737
H        -1.95810496227564   -0.92063567255658    4.04736285752944
H        -0.70402543228394   -1.94826064001669    3.33128694989105
H        -4.47537885085818    7.96074983860442   -1.10078213348456
H        -4.43176913274976    8.77537218047838    0.46027463953796
H        -1.12258679106293    8.10217348114138   -3.07513441139588
H        -2.88690823644441    8.02713669565050   -3.06439914782119
H        -2.24832731106530   -7.76830496361043   -0.94990921433240
H        -2.90899973967940   -7.57616319143813   -2.57607139716537
H         0.67022235974966   -9.61647395870342   -2.92888169727649
H         1.31463370515383   -9.83578219023900   -1.29972756553410
H         1.93713401699860    0.64781841835796    2.72661664903357
H         2.85570478635540   -0.85929052180971    2.73790478268924
H         4.86526533469966   -1.59766507053658    2.01631897432463
H         6.19279865750235   -0.99039579164968    1.03221101002309
H        -3.35685658886664    4.11958413202647    0.94587971542769
H        -1.12306504891639   -3.70037886267720   -0.84388924997726
H         0.88930452296802    3.29437755892593   -0.30270637085592
H         2.78110327495575   -3.85930247722968   -0.58265659596998
H        -4.36209497672458    2.05116672717880    4.55761007081656
H         1.03697686274056   -0.10838670709597   -1.73162906726929
H        -3.73968304680925    6.29587992348987    4.59292626051688
H         1.39490871816644   -3.50317632226867   -4.30184918628120
H         1.87319044771348    7.42369064586621   -0.83478725485210
H         3.51054128321756   -6.67477052808504   -3.72286421605245
H         4.94658375813975    4.57817649116162    0.07318778521948
H         5.60531874326991   -2.93247993965054   -3.64756463818151
H        -3.61638409507859    1.80849435083436    0.84692789906995
H        -0.32989300097683   -0.11868543699255    0.14079868471878
H        -2.82378407438742    7.40468162839393    2.57345022474918
H         0.29873921543158   -5.50898164856768   -3.86106779976977
H        -0.83929986071512    4.85041077672781   -1.00897850059443
H         1.53246082978883   -5.87036996895140   -0.61606169017628
H         4.46398182520281    2.30806798299141    0.35264789536156
H         5.17915460198525   -1.31239251662532   -1.93123508572894
H        -3.51247022375958   -0.31067532430188    0.57726622577520
H        -1.40405527693909    0.05011563858250    1.96067336836065
H        -1.93923966291860    8.30476306635138    0.54985781376966
H        -2.47166286249727    6.25556072733854   -1.62048560980489
H        -0.59035399279306   -7.52662105225719   -3.51611312506401
H         0.23325153324194   -7.69628379227588   -0.57972651621878
H         2.10532961706212   -0.48404540553479    0.51586346589047
H         4.71263698208092    0.29019274018327   -0.37058965054261
