      -----------------------------------------------------------      
     |                   =====================                   |     
     |                           x T B                           |     
     |                   =====================                   |     
     |                         S. Grimme                         |     
     |          Mulliken Center for Theoretical Chemistry        |     
     |                    University of Bonn                     |     
      -----------------------------------------------------------      

   * xtb version 6.4.1 (23d549d) compiled by 'conda@3c73975816cd' on 2022-01-07

   xtb is free software: you can redistribute it and/or modify it under
   the terms of the GNU Lesser General Public License as published by
   the Free Software Foundation, either version 3 of the License, or
   (at your option) any later version.
   
   xtb is distributed in the hope that it will be useful,
   but WITHOUT ANY WARRANTY; without even the implied warranty of
   MERCHANTABILITY or FITNESS FOR A PARTICULAR PURPOSE.  See the
   GNU Lesser General Public License for more details.
   
   Cite this work as:
   * C. Bannwarth, E. Caldeweyher, S. Ehlert, A. Hansen, P. Pracht,
     J. Seibert, S. Spicher, S. Grimme, WIREs Comput. Mol. Sci., 2020, 11,
     e01493. DOI: 10.1002/wcms.1493
   
   for GFN2-xTB:
   * C. Bannwarth, S. Ehlert and S. Grimme., J. Chem. Theory Comput., 2019,
     15, 1652-1671. DOI: 10.1021/acs.jctc.8b01176
   for GFN1-xTB:
   * S. Grimme, C. Bannwarth, P. Shushkov, J. Chem. Theory Comput., 2017,
     13, 1989-2009. DOI: 10.1021/acs.jctc.7b00118
   for GFN0-xTB:
   * P. Pracht, E. Caldeweyher, S. Ehlert, S. Grimme, ChemRxiv, 2019, preprint.
     DOI: 10.26434/chemrxiv.8326202.v1
   for GFN-FF:
   * S. Spicher and S. Grimme, Angew. Chem. Int. Ed., 2020, 59, 15665-15673.
     DOI: 10.1002/anie.202004239
   
   for DFT-D4:
   * E. Caldeweyher, C. Bannwarth and S. Grimme, J. Chem. Phys., 2017,
     147, 034112. DOI: 10.1063/1.4993215
   * E. Caldeweyher, S. Ehlert, A. Hansen, H. Neugebauer, S. Spicher,
     C. Bannwarth and S. Grimme, J. Chem. Phys., 2019, 150, 154122.
     DOI: 10.1063/1.5090222
   * E. Caldeweyher, J.-M. Mewes, S. Ehlert and S. Grimme, Phys. Chem. Chem. Phys.
     2020, 22, 8499-8512. DOI: 10.1039/D0CP00502A
   
   for sTDA-xTB:
   * S. Grimme and C. Bannwarth, J. Chem. Phys., 2016, 145, 054103.
     DOI: 10.1063/1.4959605
   
   in the mass-spec context:
   * V. Asgeirsson, C. Bauer and S. Grimme, Chem. Sci., 2017, 8, 4879.
     DOI: 10.1039/c7sc00601b
   * J. Koopman and S. Grimme, ACS Omega 2019, 4, 12, 15120-15133.
     DOI: 10.1021/acsomega.9b02011
   
   for metadynamics refer to:
   * S. Grimme, J. Chem. Theory Comput., 2019, 155, 2847-2862
     DOI: 10.1021/acs.jctc.9b00143
   
   for SPH calculations refer to:
   * S. Spicher and S. Grimme, J. Chem. Theory Comput., 2021, 17, 1701-1714
     DOI: 10.1021/acs.jctc.0c01306
   
   with help from (in alphabetical order)
   P. Atkinson, C. Bannwarth, F. Bohle, G. Brandenburg, E. Caldeweyher
   M. Checinski, S. Dohm, S. Ehlert, S. Ehrlich, I. Gerasimov, J. Koopman
   C. Lavigne, S. Lehtola, F. März, M. Müller, F. Musil, H. Neugebauer
   J. Pisarek, C. Plett, P. Pracht, J. Seibert, P. Shushkov, S. Spicher
   M. Stahn, M. Steiner, T. Strunk, J. Stückrath, T. Rose, and J. Unsleber
   
 * started run on 2022/04/01 at 14:30:30.494     

           -------------------------------------------------
          |                Calculation Setup                |
           -------------------------------------------------

          program call               : xtb HPVISMWRRURKMP-GIRTXBHHSA-N_ETKDG_MMFF.xyz --opt --gfn 2 --alpb chcl3 --cycles 10000
          coordinate file            : HPVISMWRRURKMP-GIRTXBHHSA-N_ETKDG_MMFF.xyz
          omp threads                :                    36
          number of atoms            :                    96
          number of electrons        :                   264
          charge                     :                     0
          spin                       :                   0.0
          first test random number   :      0.88555031760565

   ID    Z sym.   atoms
    1    6 C      1-42
    2   35 Br     43-45
    3    7 N      46-51
    4    1 H      52-96

           -------------------------------------------------
          |                 G F N 2 - x T B                 |
           -------------------------------------------------

        Reference                      10.1021/acs.jctc.8b01176
      * Hamiltonian:
        H0-scaling (s, p, d)           1.850000    2.230000    2.230000
        zeta-weighting                 0.500000
      * Dispersion:
        s8                             2.700000
        a1                             0.520000
        a2                             5.000000
        s9                             5.000000
      * Repulsion:
        kExp                           1.500000    1.000000
        rExp                           1.000000
      * Coulomb:
        alpha                          2.000000
        third order                    shell-resolved
        anisotropic                    true
        a3                             3.000000
        a5                             4.000000
        cn-shift                       1.200000
        cn-exp                         4.000000
        max-rad                        5.000000

      * Solvation model:               ALPB
        Solvent                        chcl3
        Parameter file                 internal GFN2-xTB/ALPB
        Dielectric constant                4.8100E+00
        Reference state                gsolv [1 M gas/solution]
        Free energy shift                  3.8910E-03 Eh       2.4417E+00 kcal/mol
        Temperature                        2.9815E+02 K
        Density                            1.4900E+00 kg/L
        Solvent mass                       1.1938E+02 g/mol
        Interaction kernel             P16
        Born radius scaling (c1)           1.3274E+00
        Born radii integrator          GBOBC
        Born offset                        0.0000E+00 a0       0.0000E+00 AA
        H-bond correction              false
        Ion screening                  false
        Surface tension                    1.0000E-05 Eh       1.5569E+01 dyn/cm
        Grid points                               230 per atom

          ...................................................
          :                      SETUP                      :
          :.................................................:
          :  # basis functions                 267          :
          :  # atomic orbitals                 264          :
          :  # shells                          150          :
          :  # electrons                       264          :
          :  max. iterations                   250          :
          :  Hamiltonian                  GFN2-xTB          :
          :  restarted?                      false          :
          :  GBSA solvation                   true          :
          :  PC potential                    false          :
          :  electronic temp.          300.0000000     K    :
          :  accuracy                    1.0000000          :
          :  -> integral cutoff          0.2500000E+02      :
          :  -> integral neglect         0.1000000E-07      :
          :  -> SCF convergence          0.1000000E-05 Eh   :
          :  -> wf. convergence          0.1000000E-03 e    :
          :  Broyden damping             0.4000000          :
          ...................................................

 iter      E             dE          RMSdq      gap      omega  full diag
   1   -144.5395518 -0.144540E+03  0.408E+00    2.92       0.0  T
   2   -144.6303771 -0.908253E-01  0.252E+00    2.73       1.0  T
   3   -144.6057559  0.246212E-01  0.869E-01    2.41       1.0  T
   4   -144.6457656 -0.400096E-01  0.364E-01    2.42       1.0  T
   5   -144.6479182 -0.215265E-02  0.193E-01    2.38       1.0  T
   6   -144.6483063 -0.388097E-03  0.123E-01    2.40       1.0  T
   7   -144.6485226 -0.216278E-03  0.872E-02    2.39       1.0  T
   8   -144.6486308 -0.108211E-03  0.519E-02    2.39       1.0  T
   9   -144.6486823 -0.515401E-04  0.180E-02    2.39       1.0  T
  10   -144.6486897 -0.733443E-05  0.698E-03    2.39       1.5  T
  11   -144.6486904 -0.690845E-06  0.398E-03    2.39       2.6  T
  12   -144.6486908 -0.385712E-06  0.935E-04    2.39      10.9  T
  13   -144.6486908 -0.186068E-07  0.644E-04    2.39      15.9  T

   *** convergence criteria satisfied after 13 iterations ***

         #    Occupation            Energy/Eh            Energy/eV
      -------------------------------------------------------------
         1        2.0000           -0.8506329             -23.1469
       ...           ...                  ...                  ...
       126        2.0000           -0.4077586             -11.0957
       127        2.0000           -0.3998635             -10.8808
       128        2.0000           -0.3975163             -10.8170
       129        2.0000           -0.3955603             -10.7637
       130        2.0000           -0.3932414             -10.7006
       131        2.0000           -0.3910505             -10.6410
       132        2.0000           -0.3897521             -10.6057 (HOMO)
       133                         -0.3020287              -8.2186 (LUMO)
       134                         -0.2989658              -8.1353
       135                         -0.2971883              -8.0869
       136                         -0.2883834              -7.8473
       137                         -0.2857887              -7.7767
       ...                                ...                  ...
       264                          0.6209697              16.8974
      -------------------------------------------------------------
                  HL-Gap            0.0877233 Eh            2.3871 eV
             Fermi-level           -0.3458904 Eh           -9.4122 eV

 SCC (total)                   0 d,  0 h,  0 min,  0.686 sec
 SCC setup                      ...        0 min,  0.018 sec (  2.578%)
 Dispersion                     ...        0 min,  0.015 sec (  2.162%)
 classical contributions        ...        0 min,  0.007 sec (  1.039%)
 integral evaluation            ...        0 min,  0.024 sec (  3.519%)
 iterations                     ...        0 min,  0.535 sec ( 78.005%)
 molecular gradient             ...        0 min,  0.085 sec ( 12.331%)
 printout                       ...        0 min,  0.002 sec (  0.358%)

         :::::::::::::::::::::::::::::::::::::::::::::::::::::
         ::                     SUMMARY                     ::
         :::::::::::::::::::::::::::::::::::::::::::::::::::::
         :: total energy            -142.695454431800 Eh    ::
         :: total w/o Gsasa/hb      -142.638739365386 Eh    ::
         :: gradient norm              0.142988617745 Eh/a0 ::
         :: HOMO-LUMO gap              2.387073398958 eV    ::
         ::.................................................::
         :: SCC energy              -144.648690779021 Eh    ::
         :: -> isotropic ES            0.075300324874 Eh    ::
         :: -> anisotropic ES          0.009674356889 Eh    ::
         :: -> anisotropic XC          0.105058899931 Eh    ::
         :: -> dispersion             -0.114105002381 Eh    ::
         :: -> Gsolv                  -0.070117062459 Eh    ::
         ::    -> Gelec               -0.013401996046 Eh    ::
         ::    -> Gsasa               -0.060606085657 Eh    ::
         ::    -> Ghb                  0.000000000000 Eh    ::
         ::    -> Gshift               0.003891019244 Eh    ::
         :: repulsion energy           1.951743112926 Eh    ::
         :: add. restraining           0.000000000000 Eh    ::
         :: total charge              -0.000000000000 e     ::
         :::::::::::::::::::::::::::::::::::::::::::::::::::::

      ----------------------------------------------------------- 
     |                   =====================                   |
     |                        A N C O P T                        |
     |                   =====================                   |
     |               Approximate Normal Coordinate               |
     |                Rational Function Optimizer                |
      ----------------------------------------------------------- 

          ...................................................
          :                      SETUP                      :
          :.................................................:
          :   optimization level            normal          :
          :   max. optcycles                 10000          :
          :   ANC micro-cycles                  20          :
          :   degrees of freedom               282          :
          :.................................................:
          :   RF solver                   davidson          :
          :   write xtbopt.log                true          :
          :   linear?                        false          :
          :   energy convergence         0.5000000E-05 Eh   :
          :   grad. convergence          0.1000000E-02 Eh/α :
          :   maximium RF displ.         1.0000000          :
          :   Hlow (freq-cutoff)         0.1000000E-01      :
          :   Hmax (freq-cutoff)         5.0000000          :
          :   S6 in model hess.         20.0000000          :
          ...................................................

generating ANC from model Hessian ...
Using Lindh-Hessian (1995)
 Shifting diagonal of input Hessian by    9.8909126045324796E-003
 Lowest  eigenvalues of input Hessian
    0.000000    0.000000    0.000000    0.000000    0.000000    0.000000
    0.010000    0.010024    0.010119    0.010163    0.010250    0.010350
    0.010521    0.010682    0.010760    0.010948    0.011077    0.011236
 Highest eigenvalues
    1.991600    2.002853    2.006505    2.023489    2.029406    2.029561


........................................................................
.............................. CYCLE    1 ..............................
........................................................................
   1   -144.6486908 -0.144649E+03  0.365E-04    2.39       0.0  T
   2   -144.6486908 -0.134352E-08  0.281E-04    2.39      36.3  T
   3   -144.6486908 -0.595122E-09  0.226E-04    2.39      45.2  T
     SCC iter.                  ...        0 min,  0.171 sec
     gradient                   ...        0 min,  0.140 sec
 * total energy  :  -142.6954544 Eh     change       -0.4680572E-08 Eh
   gradient norm :     0.1429874 Eh/α   predicted     0.0000000E+00 (-100.00%)
   displ. norm   :     0.3205246 α      lambda       -0.2670833E-01
   maximum displ.:     0.0779097 α      in ANC's #64, #49, #191, ...

........................................................................
.............................. CYCLE    2 ..............................
........................................................................
   1   -144.7472004 -0.144747E+03  0.192E-01    2.34       0.0  T
   2   -144.7472642 -0.637538E-04  0.113E-01    2.35       1.0  T
   3   -144.7472394  0.247809E-04  0.276E-02    2.34       1.0  T
   4   -144.7472788 -0.393469E-04  0.893E-03    2.35       1.1  T
   5   -144.7472803 -0.158711E-05  0.445E-03    2.35       2.3  T
   6   -144.7472806 -0.251878E-06  0.283E-03    2.35       3.6  T
   7   -144.7472807 -0.689312E-07  0.169E-03    2.35       6.0  T
   8   -144.7472807 -0.436498E-07  0.114E-03    2.35       9.0  T
   9   -144.7472807 -0.207764E-07  0.438E-04    2.35      23.3  T
  10   -144.7472807 -0.509621E-08  0.200E-04    2.35      50.9  T
     SCC iter.                  ...        0 min,  0.675 sec
     gradient                   ...        0 min,  0.155 sec
 * total energy  :  -142.7135999 Eh     change       -0.1814543E-01 Eh
   gradient norm :     0.0567132 Eh/α   predicted    -0.1473385E-01 ( -18.80%)
   displ. norm   :     0.3353698 α      lambda       -0.8011475E-02
   maximum displ.:     0.1127094 α      in ANC's #49, #43, #27, ...

........................................................................
.............................. CYCLE    3 ..............................
........................................................................
   1   -144.7968716 -0.144797E+03  0.114E-01    2.28       0.0  T
   2   -144.7969307 -0.590708E-04  0.695E-02    2.30       1.0  T
   3   -144.7969043  0.264110E-04  0.299E-02    2.29       1.0  T
   4   -144.7969466 -0.423285E-04  0.794E-03    2.30       1.3  T
   5   -144.7969478 -0.118814E-05  0.430E-03    2.30       2.4  T
   6   -144.7969480 -0.236335E-06  0.301E-03    2.30       3.4  T
   7   -144.7969481 -0.656383E-07  0.201E-03    2.30       5.1  T
   8   -144.7969482 -0.914346E-07  0.101E-03    2.30      10.1  T
   9   -144.7969482 -0.154449E-07  0.383E-04    2.30      26.7  T
  10   -144.7969482 -0.340614E-08  0.165E-04    2.30      61.7  T
     SCC iter.                  ...        0 min,  0.626 sec
     gradient                   ...        0 min,  0.150 sec
 * total energy  :  -142.7185516 Eh     change       -0.4951772E-02 Eh
   gradient norm :     0.0179241 Eh/α   predicted    -0.4462765E-02 (  -9.88%)
   displ. norm   :     0.3038345 α      lambda       -0.1833111E-02
   maximum displ.:     0.1028971 α      in ANC's #13, #27, #19, ...

........................................................................
.............................. CYCLE    4 ..............................
........................................................................
   1   -144.8034710 -0.144803E+03  0.624E-02    2.27       0.0  T
   2   -144.8034859 -0.149185E-04  0.367E-02    2.27       1.0  T
   3   -144.8034781  0.787327E-05  0.162E-02    2.27       1.0  T
   4   -144.8034916 -0.135806E-04  0.373E-03    2.27       2.7  T
   5   -144.8034918 -0.153369E-06  0.203E-03    2.27       5.0  T
   6   -144.8034918 -0.586092E-07  0.133E-03    2.27       7.7  T
   7   -144.8034919 -0.140296E-07  0.971E-04    2.27      10.5  T
   8   -144.8034919 -0.166156E-07  0.525E-04    2.27      19.4  T
     SCC iter.                  ...        0 min,  0.517 sec
     gradient                   ...        0 min,  0.151 sec
 * total energy  :  -142.7198692 Eh     change       -0.1317594E-02 Eh
   gradient norm :     0.0092771 Eh/α   predicted    -0.1001212E-02 ( -24.01%)
   displ. norm   :     0.3774303 α      lambda       -0.1195989E-02
   maximum displ.:     0.1500519 α      in ANC's #13, #27, #19, ...

........................................................................
.............................. CYCLE    5 ..............................
........................................................................
   1   -144.8031276 -0.144803E+03  0.756E-02    2.26       0.0  T
   2   -144.8031382 -0.105797E-04  0.428E-02    2.26       1.0  T
   3   -144.8031315  0.663642E-05  0.135E-02    2.26       1.0  T
   4   -144.8031423 -0.107529E-04  0.346E-03    2.27       2.9  T
   5   -144.8031424 -0.704784E-07  0.146E-03    2.26       7.0  T
   6   -144.8031424 -0.461511E-07  0.862E-04    2.26      11.8  T
   7   -144.8031424 -0.552362E-08  0.639E-04    2.26      16.0  T
     SCC iter.                  ...        0 min,  0.391 sec
     gradient                   ...        0 min,  0.154 sec
 * total energy  :  -142.7207224 Eh     change       -0.8531284E-03 Eh
   gradient norm :     0.0086474 Eh/α   predicted    -0.6831821E-03 ( -19.92%)
   displ. norm   :     0.3823929 α      lambda       -0.7487986E-03
   maximum displ.:     0.1700389 α      in ANC's #13, #19, #18, ...

........................................................................
.............................. CYCLE    6 ..............................
........................................................................
   1   -144.8015156 -0.144802E+03  0.802E-02    2.26       0.0  T
   2   -144.8015239 -0.831488E-05  0.444E-02    2.27       1.0  T
   3   -144.8015237  0.227922E-06  0.838E-03    2.27       1.2  T
   4   -144.8015266 -0.296831E-05  0.359E-03    2.27       2.8  T
   5   -144.8015268 -0.118979E-06  0.112E-03    2.27       9.1  T
   6   -144.8015268 -0.253536E-07  0.739E-04    2.27      13.8  T
   7   -144.8015268 -0.372063E-08  0.501E-04    2.27      20.4  T
     SCC iter.                  ...        0 min,  0.484 sec
     gradient                   ...        0 min,  0.163 sec
 * total energy  :  -142.7212718 Eh     change       -0.5494247E-03 Eh
   gradient norm :     0.0086028 Eh/α   predicted    -0.4291647E-03 ( -21.89%)
   displ. norm   :     0.3800244 α      lambda       -0.5522743E-03
   maximum displ.:     0.1815079 α      in ANC's #13, #22, #18, ...

........................................................................
.............................. CYCLE    7 ..............................
........................................................................
   1   -144.8021691 -0.144802E+03  0.846E-02    2.28       0.0  T
   2   -144.8021779 -0.876822E-05  0.466E-02    2.28       1.0  T
   3   -144.8021795 -0.164646E-05  0.675E-03    2.28       1.5  T
   4   -144.8021804 -0.912163E-06  0.375E-03    2.28       2.7  T
   5   -144.8021807 -0.241918E-06  0.136E-03    2.28       7.5  T
   6   -144.8021807 -0.298157E-07  0.959E-04    2.28      10.6  T
   7   -144.8021807 -0.625695E-08  0.624E-04    2.28      16.3  T
     SCC iter.                  ...        0 min,  0.469 sec
     gradient                   ...        0 min,  0.156 sec
 * total energy  :  -142.7216676 Eh     change       -0.3958471E-03 Eh
   gradient norm :     0.0066873 Eh/α   predicted    -0.3160309E-03 ( -20.16%)
   displ. norm   :     0.3141322 α      lambda       -0.3477916E-03
   maximum displ.:     0.1523300 α      in ANC's #13, #11, #22, ...

........................................................................
.............................. CYCLE    8 ..............................
........................................................................
   1   -144.8048830 -0.144805E+03  0.772E-02    2.29       0.0  T
   2   -144.8048898 -0.679094E-05  0.428E-02    2.30       1.0  T
   3   -144.8048911 -0.135171E-05  0.595E-03    2.30       1.7  T
   4   -144.8048917 -0.609605E-06  0.343E-03    2.30       3.0  T
   5   -144.8048920 -0.256496E-06  0.131E-03    2.30       7.8  T
   6   -144.8048920 -0.182794E-07  0.999E-04    2.30      10.2  T
   7   -144.8048920 -0.816019E-08  0.645E-04    2.30      15.8  T
     SCC iter.                  ...        0 min,  0.207 sec
     gradient                   ...        0 min,  0.033 sec
 * total energy  :  -142.7219172 Eh     change       -0.2495774E-03 Eh
   gradient norm :     0.0045457 Eh/α   predicted    -0.1910569E-03 ( -23.45%)
   displ. norm   :     0.2842714 α      lambda       -0.2454387E-03
   maximum displ.:     0.1332194 α      in ANC's #13, #8, #11, ...

........................................................................
.............................. CYCLE    9 ..............................
........................................................................
   1   -144.8079540 -0.144808E+03  0.740E-02    2.30       0.0  T
   2   -144.8079603 -0.632128E-05  0.412E-02    2.31       1.0  T
   3   -144.8079617 -0.140441E-05  0.540E-03    2.31       1.9  T
   4   -144.8079621 -0.438183E-06  0.311E-03    2.31       3.3  T
   5   -144.8079624 -0.238276E-06  0.111E-03    2.31       9.2  T
   6   -144.8079624 -0.132113E-07  0.852E-04    2.31      12.0  T
   7   -144.8079624 -0.630763E-08  0.551E-04    2.31      18.5  T
     SCC iter.                  ...        0 min,  0.321 sec
     gradient                   ...        0 min,  0.065 sec
 * total energy  :  -142.7220968 Eh     change       -0.1796279E-03 Eh
   gradient norm :     0.0038249 Eh/α   predicted    -0.1326378E-03 ( -26.16%)
   displ. norm   :     0.3013446 α      lambda       -0.2108911E-03
   maximum displ.:     0.1280282 α      in ANC's #13, #8, #11, ...

........................................................................
.............................. CYCLE   10 ..............................
........................................................................
   1   -144.8095716 -0.144810E+03  0.794E-02    2.30       0.0  T
   2   -144.8095795 -0.790786E-05  0.443E-02    2.30       1.0  T
   3   -144.8095810 -0.153874E-05  0.587E-03    2.30       1.7  T
   4   -144.8095818 -0.804562E-06  0.318E-03    2.30       3.2  T
   5   -144.8095820 -0.217581E-06  0.998E-04    2.30      10.2  T
   6   -144.8095821 -0.157119E-07  0.704E-04    2.30      14.5  T
     SCC iter.                  ...        0 min,  0.305 sec
     gradient                   ...        0 min,  0.080 sec
 * total energy  :  -142.7222574 Eh     change       -0.1605771E-03 Eh
   gradient norm :     0.0034830 Eh/α   predicted    -0.1150249E-03 ( -28.37%)
   displ. norm   :     0.3520659 α      lambda       -0.2129118E-03
   maximum displ.:     0.1410968 α      in ANC's #8, #13, #9, ...

........................................................................
.............................. CYCLE   11 ..............................
........................................................................
   1   -144.8095246 -0.144810E+03  0.912E-02    2.29       0.0  T
   2   -144.8095360 -0.113989E-04  0.508E-02    2.29       1.0  T
   3   -144.8095379 -0.187546E-05  0.716E-03    2.29       1.4  T
   4   -144.8095394 -0.154887E-05  0.366E-03    2.29       2.8  T
   5   -144.8095397 -0.243545E-06  0.107E-03    2.29       9.5  T
   6   -144.8095397 -0.203714E-07  0.700E-04    2.29      14.6  T
   7   -144.8095397 -0.261804E-08  0.468E-04    2.29      21.8  T
     SCC iter.                  ...        0 min,  0.269 sec
     gradient                   ...        0 min,  0.070 sec
 * total energy  :  -142.7224180 Eh     change       -0.1605702E-03 Eh
   gradient norm :     0.0035789 Eh/α   predicted    -0.1196667E-03 ( -25.47%)
   displ. norm   :     0.3407300 α      lambda       -0.1824680E-03
   maximum displ.:     0.1405672 α      in ANC's #8, #2, #9, ...

........................................................................
.............................. CYCLE   12 ..............................
........................................................................
   1   -144.8087361 -0.144809E+03  0.849E-02    2.28       0.0  T
   2   -144.8087463 -0.101711E-04  0.473E-02    2.28       1.0  T
   3   -144.8087480 -0.168055E-05  0.675E-03    2.28       1.5  T
   4   -144.8087494 -0.139504E-05  0.346E-03    2.28       2.9  T
   5   -144.8087496 -0.209758E-06  0.110E-03    2.28       9.3  T
   6   -144.8087496 -0.182834E-07  0.756E-04    2.28      13.5  T
   7   -144.8087496 -0.374013E-08  0.511E-04    2.28      20.0  T
     SCC iter.                  ...        0 min,  0.344 sec
     gradient                   ...        0 min,  0.081 sec
 * total energy  :  -142.7225548 Eh     change       -0.1368431E-03 Eh
   gradient norm :     0.0038850 Eh/α   predicted    -0.1018275E-03 ( -25.59%)
   displ. norm   :     0.3120768 α      lambda       -0.1554219E-03
   maximum displ.:     0.1349170 α      in ANC's #2, #8, #9, ...

........................................................................
.............................. CYCLE   13 ..............................
........................................................................
   1   -144.8081351 -0.144808E+03  0.744E-02    2.27       0.0  T
   2   -144.8081427 -0.766776E-05  0.415E-02    2.27       1.0  T
   3   -144.8081441 -0.137893E-05  0.587E-03    2.27       1.7  T
   4   -144.8081451 -0.946776E-06  0.311E-03    2.27       3.3  T
   5   -144.8081452 -0.178501E-06  0.108E-03    2.27       9.5  T
   6   -144.8081453 -0.128136E-07  0.798E-04    2.27      12.8  T
   7   -144.8081453 -0.551742E-08  0.508E-04    2.27      20.1  T
     SCC iter.                  ...        0 min,  0.388 sec
     gradient                   ...        0 min,  0.093 sec
 * total energy  :  -142.7226726 Eh     change       -0.1177472E-03 Eh
   gradient norm :     0.0037101 Eh/α   predicted    -0.8528006E-04 ( -27.57%)
   displ. norm   :     0.3094831 α      lambda       -0.1476599E-03
   maximum displ.:     0.1478581 α      in ANC's #2, #8, #9, ...

........................................................................
.............................. CYCLE   14 ..............................
........................................................................
   1   -144.8077295 -0.144808E+03  0.708E-02    2.27       0.0  T
   2   -144.8077361 -0.655707E-05  0.396E-02    2.27       1.0  T
   3   -144.8077376 -0.150409E-05  0.509E-03    2.27       2.0  T
   4   -144.8077380 -0.449271E-06  0.283E-03    2.27       3.6  T
   5   -144.8077382 -0.181147E-06  0.101E-03    2.27      10.1  T
   6   -144.8077382 -0.112746E-07  0.762E-04    2.27      13.4  T
   7   -144.8077382 -0.580584E-08  0.427E-04    2.27      23.9  T
     SCC iter.                  ...        0 min,  0.365 sec
     gradient                   ...        0 min,  0.074 sec
 * total energy  :  -142.7227856 Eh     change       -0.1130706E-03 Eh
   gradient norm :     0.0032522 Eh/α   predicted    -0.8090264E-04 ( -28.45%)
   displ. norm   :     0.3250844 α      lambda       -0.1509277E-03
   maximum displ.:     0.1674495 α      in ANC's #2, #8, #9, ...

........................................................................
.............................. CYCLE   15 ..............................
........................................................................
   1   -144.8079197 -0.144808E+03  0.695E-02    2.26       0.0  T
   2   -144.8079257 -0.600694E-05  0.388E-02    2.26       1.0  T
   3   -144.8079272 -0.147839E-05  0.477E-03    2.26       2.1  T
   4   -144.8079275 -0.306031E-06  0.263E-03    2.26       3.9  T
   5   -144.8079277 -0.176613E-06  0.901E-04    2.26      11.3  T
   6   -144.8079277 -0.971832E-08  0.671E-04    2.26      15.2  T
     SCC iter.                  ...        0 min,  0.292 sec
     gradient                   ...        0 min,  0.090 sec
 * total energy  :  -142.7228991 Eh     change       -0.1134557E-03 Eh
   gradient norm :     0.0038470 Eh/α   predicted    -0.8344129E-04 ( -26.45%)
   displ. norm   :     0.3441769 α      lambda       -0.1436005E-03
   maximum displ.:     0.1837560 α      in ANC's #2, #9, #8, ...

........................................................................
.............................. CYCLE   16 ..............................
........................................................................
   1   -144.8081176 -0.144808E+03  0.717E-02    2.26       0.0  T
   2   -144.8081241 -0.645224E-05  0.401E-02    2.26       1.0  T
   3   -144.8081258 -0.170919E-05  0.484E-03    2.26       2.1  T
   4   -144.8081260 -0.145884E-06  0.267E-03    2.26       3.8  T
   5   -144.8081262 -0.204766E-06  0.998E-04    2.26      10.2  T
   6   -144.8081262 -0.152299E-07  0.717E-04    2.26      14.2  T
     SCC iter.                  ...        0 min,  0.256 sec
     gradient                   ...        0 min,  0.088 sec
 * total energy  :  -142.7230055 Eh     change       -0.1064039E-03 Eh
   gradient norm :     0.0041768 Eh/α   predicted    -0.8030872E-04 ( -24.52%)
   displ. norm   :     0.3129739 α      lambda       -0.1364887E-03
   maximum displ.:     0.1799226 α      in ANC's #2, #9, #8, ...

........................................................................
.............................. CYCLE   17 ..............................
........................................................................
   1   -144.8103869 -0.144810E+03  0.570E-02    2.26       0.0  T
   2   -144.8103907 -0.382572E-05  0.316E-02    2.26       1.0  T
   3   -144.8103916 -0.888035E-06  0.425E-03    2.26       2.4  T
   4   -144.8103919 -0.273422E-06  0.245E-03    2.26       4.2  T
   5   -144.8103920 -0.140389E-06  0.974E-04    2.26      10.5  T
   6   -144.8103920 -0.960262E-08  0.730E-04    2.26      14.0  T
     SCC iter.                  ...        0 min,  0.250 sec
     gradient                   ...        0 min,  0.084 sec
 * total energy  :  -142.7231058 Eh     change       -0.1002624E-03 Eh
   gradient norm :     0.0045367 Eh/α   predicted    -0.7492998E-04 ( -25.27%)
   displ. norm   :     0.3745485 α      lambda       -0.1395010E-03
   maximum displ.:     0.2099449 α      in ANC's #2, #9, #8, ...

........................................................................
.............................. CYCLE   18 ..............................
........................................................................
   1   -144.8091829 -0.144809E+03  0.757E-02    2.26       0.0  T
   2   -144.8091902 -0.737308E-05  0.420E-02    2.26       1.0  T
   3   -144.8091914 -0.115691E-05  0.620E-03    2.26       1.6  T
   4   -144.8091925 -0.110886E-05  0.337E-03    2.26       3.0  T
   5   -144.8091927 -0.200519E-06  0.116E-03    2.26       8.8  T
   6   -144.8091927 -0.176756E-07  0.857E-04    2.26      11.9  T
   7   -144.8091927 -0.405996E-08  0.487E-04    2.26      21.0  T
     SCC iter.                  ...        0 min,  0.286 sec
     gradient                   ...        0 min,  0.088 sec
 * total energy  :  -142.7232065 Eh     change       -0.1007035E-03 Eh
   gradient norm :     0.0047694 Eh/α   predicted    -0.7953607E-04 ( -21.02%)
   displ. norm   :     0.3260220 α      lambda       -0.1613040E-03
   maximum displ.:     0.2038805 α      in ANC's #2, #9, #8, ...

........................................................................
.............................. CYCLE   19 ..............................
........................................................................
   1   -144.8132026 -0.144813E+03  0.602E-02    2.25       0.0  T
   2   -144.8132070 -0.440333E-05  0.335E-02    2.25       1.0  T
   3   -144.8132076 -0.602257E-06  0.493E-03    2.25       2.1  T
   4   -144.8132083 -0.658775E-06  0.274E-03    2.26       3.7  T
   5   -144.8132084 -0.131753E-06  0.113E-03    2.25       9.1  T
   6   -144.8132084 -0.184718E-07  0.789E-04    2.25      12.9  T
   7   -144.8132084 -0.424916E-08  0.472E-04    2.25      21.6  T
     SCC iter.                  ...        0 min,  0.295 sec
     gradient                   ...        0 min,  0.105 sec
 * total energy  :  -142.7233151 Eh     change       -0.1086776E-03 Eh
   gradient norm :     0.0050618 Eh/α   predicted    -0.8922897E-04 ( -17.90%)
   displ. norm   :     0.3845468 α      lambda       -0.1598973E-03
   maximum displ.:     0.2378036 α      in ANC's #2, #9, #8, ...

........................................................................
.............................. CYCLE   20 ..............................
........................................................................
   1   -144.8115851 -0.144812E+03  0.745E-02    2.25       0.0  T
   2   -144.8115920 -0.694542E-05  0.413E-02    2.25       1.0  T
   3   -144.8115923 -0.271371E-06  0.678E-03    2.25       1.5  T
   4   -144.8115943 -0.199025E-05  0.325E-03    2.25       3.1  T
   5   -144.8115944 -0.132585E-06  0.114E-03    2.25       8.9  T
   6   -144.8115945 -0.161823E-07  0.820E-04    2.25      12.5  T
   7   -144.8115945 -0.306812E-08  0.472E-04    2.25      21.6  T
     SCC iter.                  ...        0 min,  0.313 sec
     gradient                   ...        0 min,  0.072 sec
 * total energy  :  -142.7234367 Eh     change       -0.1215557E-03 Eh
   gradient norm :     0.0052332 Eh/α   predicted    -0.9177607E-04 ( -24.50%)
   displ. norm   :     0.3636906 α      lambda       -0.1751004E-03
   maximum displ.:     0.2376826 α      in ANC's #2, #9, #4, ...
 * RMSD in coord.:     0.5152690 α      energy gain  -0.2798227E-01 Eh

generating ANC from model Hessian ...
Using Lindh-Hessian (1995)
 Shifting diagonal of input Hessian by    9.8841094047075941E-003
 Lowest  eigenvalues of input Hessian
    0.000000    0.000000    0.000000    0.000000    0.000000    0.000000
    0.010000    0.010029    0.010124    0.010196    0.010252    0.010435
    0.010599    0.010748    0.010846    0.011013    0.011171    0.011302
 Highest eigenvalues
    2.138292    2.142154    2.154123    2.164387    2.166362    2.169680


........................................................................
.............................. CYCLE   21 ..............................
........................................................................
   1   -144.8105239 -0.144811E+03  0.686E-02    2.24       0.0  T
   2   -144.8105294 -0.553041E-05  0.381E-02    2.25       1.0  T
   3   -144.8105300 -0.590381E-06  0.577E-03    2.24       1.8  T
   4   -144.8105311 -0.114404E-05  0.304E-03    2.24       3.4  T
   5   -144.8105313 -0.141431E-06  0.119E-03    2.24       8.6  T
   6   -144.8105313 -0.155480E-07  0.867E-04    2.24      11.8  T
   7   -144.8105313 -0.450322E-08  0.462E-04    2.24      22.1  T
     SCC iter.                  ...        0 min,  0.233 sec
     gradient                   ...        0 min,  0.061 sec
 * total energy  :  -142.7235791 Eh     change       -0.1424342E-03 Eh
   gradient norm :     0.0052981 Eh/α   predicted     0.0000000E+00 (-100.00%)
   displ. norm   :     0.0570517 α      lambda       -0.6533760E-04
   maximum displ.:     0.0286116 α      in ANC's #2, #1, #11, ...

........................................................................
.............................. CYCLE   22 ..............................
........................................................................
   1   -144.8115342 -0.144812E+03  0.166E-02    2.24       0.0  T
   2   -144.8115346 -0.379884E-06  0.951E-03    2.24       1.1  T
   3   -144.8115346 -0.102443E-07  0.146E-03    2.24       7.0  T
   4   -144.8115347 -0.881133E-07  0.730E-04    2.24      14.0  T
   5   -144.8115347 -0.906462E-08  0.308E-04    2.24      33.1  T
     SCC iter.                  ...        0 min,  0.173 sec
     gradient                   ...        0 min,  0.063 sec
 * total energy  :  -142.7236446 Eh     change       -0.6542326E-04 Eh
   gradient norm :     0.0027541 Eh/α   predicted    -0.4018727E-04 ( -38.57%)
   displ. norm   :     0.1761705 α      lambda       -0.1574383E-03
   maximum displ.:     0.0902523 α      in ANC's #2, #1, #11, ...

........................................................................
.............................. CYCLE   23 ..............................
........................................................................
   1   -144.8126790 -0.144813E+03  0.465E-02    2.24       0.0  T
   2   -144.8126821 -0.308919E-05  0.260E-02    2.24       1.0  T
   3   -144.8126827 -0.632990E-06  0.335E-03    2.24       3.0  T
   4   -144.8126830 -0.231895E-06  0.190E-03    2.24       5.4  T
   5   -144.8126830 -0.623442E-07  0.758E-04    2.24      13.5  T
   6   -144.8126830 -0.114088E-07  0.503E-04    2.24      20.3  T
     SCC iter.                  ...        0 min,  0.253 sec
     gradient                   ...        0 min,  0.064 sec
 * total energy  :  -142.7237518 Eh     change       -0.1072412E-03 Eh
   gradient norm :     0.0036035 Eh/α   predicted    -0.8116354E-04 ( -24.32%)
   displ. norm   :     0.1746223 α      lambda       -0.8795194E-04
   maximum displ.:     0.0943188 α      in ANC's #2, #1, #11, ...

........................................................................
.............................. CYCLE   24 ..............................
........................................................................
   1   -144.8123845 -0.144812E+03  0.446E-02    2.24       0.0  T
   2   -144.8123874 -0.285669E-05  0.248E-02    2.24       1.0  T
   3   -144.8123880 -0.650956E-06  0.314E-03    2.24       3.3  T
   4   -144.8123882 -0.180155E-06  0.174E-03    2.24       5.9  T
   5   -144.8123883 -0.677306E-07  0.606E-04    2.24      16.9  T
   6   -144.8123883 -0.628677E-08  0.422E-04    2.24      24.2  T
     SCC iter.                  ...        0 min,  0.241 sec
     gradient                   ...        0 min,  0.075 sec
 * total energy  :  -142.7238235 Eh     change       -0.7170751E-04 Eh
   gradient norm :     0.0047676 Eh/α   predicted    -0.4531769E-04 ( -36.80%)
   displ. norm   :     0.2922539 α      lambda       -0.1370545E-03
   maximum displ.:     0.1587301 α      in ANC's #2, #1, #11, ...

........................................................................
.............................. CYCLE   25 ..............................
........................................................................
   1   -144.8111885 -0.144811E+03  0.749E-02    2.24       0.0  T
   2   -144.8111966 -0.819199E-05  0.416E-02    2.24       1.0  T
   3   -144.8111983 -0.163418E-05  0.549E-03    2.23       1.9  T
   4   -144.8111990 -0.769385E-06  0.294E-03    2.24       3.5  T
   5   -144.8111992 -0.190032E-06  0.903E-04    2.24      11.3  T
   6   -144.8111992 -0.134447E-07  0.604E-04    2.24      16.9  T
     SCC iter.                  ...        0 min,  0.264 sec
     gradient                   ...        0 min,  0.082 sec
 * total energy  :  -142.7239352 Eh     change       -0.1116473E-03 Eh
   gradient norm :     0.0052150 Eh/α   predicted    -0.7438789E-04 ( -33.37%)
   displ. norm   :     0.3660050 α      lambda       -0.1632309E-03
   maximum displ.:     0.2034224 α      in ANC's #2, #1, #4, ...

........................................................................
.............................. CYCLE   26 ..............................
........................................................................
   1   -144.8095633 -0.144810E+03  0.924E-02    2.24       0.0  T
   2   -144.8095754 -0.120767E-04  0.512E-02    2.24       1.0  T
   3   -144.8095774 -0.204349E-05  0.705E-03    2.23       1.4  T
   4   -144.8095790 -0.154787E-05  0.369E-03    2.23       2.8  T
   5   -144.8095792 -0.273383E-06  0.113E-03    2.23       9.0  T
   6   -144.8095793 -0.192917E-07  0.756E-04    2.23      13.5  T
   7   -144.8095793 -0.278573E-08  0.433E-04    2.23      23.6  T
     SCC iter.                  ...        0 min,  0.248 sec
     gradient                   ...        0 min,  0.065 sec
 * total energy  :  -142.7240597 Eh     change       -0.1245018E-03 Eh
   gradient norm :     0.0066438 Eh/α   predicted    -0.9257315E-04 ( -25.65%)
   displ. norm   :     0.3054391 α      lambda       -0.1535684E-03
   maximum displ.:     0.1780296 α      in ANC's #2, #1, #4, ...

........................................................................
.............................. CYCLE   27 ..............................
........................................................................
   1   -144.8093110 -0.144809E+03  0.704E-02    2.23       0.0  T
   2   -144.8093173 -0.631892E-05  0.391E-02    2.23       1.0  T
   3   -144.8093183 -0.107380E-05  0.523E-03    2.23       1.9  T
   4   -144.8093192 -0.814449E-06  0.277E-03    2.23       3.7  T
   5   -144.8093193 -0.148900E-06  0.933E-04    2.23      10.9  T
   6   -144.8093193 -0.134524E-07  0.632E-04    2.23      16.1  T
     SCC iter.                  ...        0 min,  0.502 sec
     gradient                   ...        0 min,  0.091 sec
 * total energy  :  -142.7241847 Eh     change       -0.1250660E-03 Eh
   gradient norm :     0.0065844 Eh/α   predicted    -0.8395477E-04 ( -32.87%)
   displ. norm   :     0.3348370 α      lambda       -0.1944855E-03
   maximum displ.:     0.2020421 α      in ANC's #2, #1, #4, ...

........................................................................
.............................. CYCLE   28 ..............................
........................................................................
   1   -144.8104682 -0.144810E+03  0.694E-02    2.23       0.0  T
   2   -144.8104736 -0.539861E-05  0.387E-02    2.23       1.0  T
   3   -144.8104745 -0.918813E-06  0.504E-03    2.23       2.0  T
   4   -144.8104752 -0.679371E-06  0.276E-03    2.23       3.7  T
   5   -144.8104753 -0.142182E-06  0.109E-03    2.23       9.4  T
   6   -144.8104753 -0.176975E-07  0.748E-04    2.23      13.6  T
   7   -144.8104753 -0.330149E-08  0.417E-04    2.23      24.5  T
     SCC iter.                  ...        0 min,  0.458 sec
     gradient                   ...        0 min,  0.132 sec
 * total energy  :  -142.7243363 Eh     change       -0.1515403E-03 Eh
   gradient norm :     0.0049496 Eh/α   predicted    -0.1081465E-03 ( -28.64%)
   displ. norm   :     0.4196035 α      lambda       -0.1741394E-03
   maximum displ.:     0.2543873 α      in ANC's #2, #1, #4, ...

........................................................................
.............................. CYCLE   29 ..............................
........................................................................
   1   -144.8104049 -0.144810E+03  0.888E-02    2.23       0.0  T
   2   -144.8104137 -0.887377E-05  0.495E-02    2.23       1.0  T
   3   -144.8104154 -0.167130E-05  0.620E-03    2.23       1.6  T
   4   -144.8104164 -0.951236E-06  0.341E-03    2.23       3.0  T
   5   -144.8104166 -0.237226E-06  0.119E-03    2.23       8.6  T
   6   -144.8104166 -0.220518E-07  0.815E-04    2.23      12.5  T
   7   -144.8104166 -0.338068E-08  0.462E-04    2.23      22.1  T
     SCC iter.                  ...        0 min,  0.250 sec
     gradient                   ...        0 min,  0.067 sec
 * total energy  :  -142.7244789 Eh     change       -0.1426423E-03 Eh
   gradient norm :     0.0058934 Eh/α   predicted    -0.1024098E-03 ( -28.21%)
   displ. norm   :     0.4100986 α      lambda       -0.1869349E-03
   maximum displ.:     0.2574100 α      in ANC's #2, #1, #4, ...

........................................................................
.............................. CYCLE   30 ..............................
........................................................................
   1   -144.8117188 -0.144812E+03  0.764E-02    2.23       0.0  T
   2   -144.8117247 -0.588640E-05  0.426E-02    2.23       1.0  T
   3   -144.8117261 -0.137981E-05  0.496E-03    2.23       2.1  T
   4   -144.8117264 -0.346018E-06  0.282E-03    2.23       3.6  T
   5   -144.8117266 -0.172027E-06  0.114E-03    2.23       9.0  T
   6   -144.8117266 -0.198549E-07  0.791E-04    2.23      12.9  T
   7   -144.8117266 -0.369542E-08  0.413E-04    2.23      24.7  T
     SCC iter.                  ...        0 min,  0.296 sec
     gradient                   ...        0 min,  0.086 sec
 * total energy  :  -142.7246297 Eh     change       -0.1507995E-03 Eh
   gradient norm :     0.0045805 Eh/α   predicted    -0.1092034E-03 ( -27.58%)
   displ. norm   :     0.5123631 α      lambda       -0.1977441E-03
   maximum displ.:     0.3202180 α      in ANC's #2, #1, #4, ...

........................................................................
.............................. CYCLE   31 ..............................
........................................................................
   1   -144.8105273 -0.144811E+03  0.105E-01    2.23       0.0  T
   2   -144.8105387 -0.113728E-04  0.587E-02    2.23       1.0  T
   3   -144.8105413 -0.256445E-05  0.683E-03    2.23       1.5  T
   4   -144.8105420 -0.745176E-06  0.396E-03    2.23       2.6  T
   5   -144.8105424 -0.380006E-06  0.140E-03    2.23       7.3  T
   6   -144.8105424 -0.281540E-07  0.995E-04    2.23      10.3  T
   7   -144.8105424 -0.610393E-08  0.498E-04    2.23      20.5  T
     SCC iter.                  ...        0 min,  0.385 sec
     gradient                   ...        0 min,  0.101 sec
 * total energy  :  -142.7247874 Eh     change       -0.1576867E-03 Eh
   gradient norm :     0.0051675 Eh/α   predicted    -0.1248340E-03 ( -20.83%)
   displ. norm   :     0.4460354 α      lambda       -0.2096155E-03
   maximum displ.:     0.2892804 α      in ANC's #2, #1, #4, ...

........................................................................
.............................. CYCLE   32 ..............................
........................................................................
   1   -144.8121529 -0.144812E+03  0.796E-02    2.23       0.0  T
   2   -144.8121582 -0.529081E-05  0.445E-02    2.23       1.0  T
   3   -144.8121597 -0.150754E-05  0.484E-03    2.23       2.1  T
   4   -144.8121598 -0.879926E-07  0.255E-03    2.23       4.0  T
   5   -144.8121600 -0.150495E-06  0.123E-03    2.23       8.3  T
   6   -144.8121600 -0.215860E-07  0.909E-04    2.23      11.2  T
   7   -144.8121600 -0.712186E-08  0.383E-04    2.23      26.6  T
     SCC iter.                  ...        0 min,  0.369 sec
     gradient                   ...        0 min,  0.133 sec
 * total energy  :  -142.7249468 Eh     change       -0.1594111E-03 Eh
   gradient norm :     0.0032647 Eh/α   predicted    -0.1256620E-03 ( -21.17%)
   displ. norm   :     0.4626369 α      lambda       -0.1590100E-03
   maximum displ.:     0.3028583 α      in ANC's #2, #1, #4, ...

........................................................................
.............................. CYCLE   33 ..............................
........................................................................
   1   -144.8115708 -0.144812E+03  0.876E-02    2.23       0.0  T
   2   -144.8115775 -0.672334E-05  0.488E-02    2.23       1.0  T
   3   -144.8115792 -0.172337E-05  0.560E-03    2.23       1.8  T
   4   -144.8115794 -0.249744E-06  0.327E-03    2.23       3.1  T
   5   -144.8115797 -0.293806E-06  0.132E-03    2.23       7.7  T
   6   -144.8115798 -0.195872E-07  0.982E-04    2.23      10.4  T
   7   -144.8115798 -0.741906E-08  0.399E-04    2.23      25.6  T
     SCC iter.                  ...        0 min,  0.352 sec
     gradient                   ...        0 min,  0.119 sec
 * total energy  :  -142.7250766 Eh     change       -0.1297589E-03 Eh
   gradient norm :     0.0046859 Eh/α   predicted    -0.9652247E-04 ( -25.61%)
   displ. norm   :     0.3969537 α      lambda       -0.1782429E-03
   maximum displ.:     0.2629430 α      in ANC's #2, #1, #4, ...

........................................................................
.............................. CYCLE   34 ..............................
........................................................................
   1   -144.8136844 -0.144814E+03  0.707E-02    2.23       0.0  T
   2   -144.8136879 -0.355812E-05  0.393E-02    2.23       1.0  T
   3   -144.8136888 -0.871910E-06  0.484E-03    2.23       2.1  T
   4   -144.8136889 -0.125722E-06  0.282E-03    2.23       3.6  T
   5   -144.8136891 -0.198801E-06  0.125E-03    2.23       8.1  T
   6   -144.8136892 -0.158142E-07  0.932E-04    2.23      10.9  T
   7   -144.8136892 -0.674024E-08  0.432E-04    2.23      23.6  T
     SCC iter.                  ...        0 min,  0.464 sec
     gradient                   ...        0 min,  0.147 sec
 * total energy  :  -142.7252127 Eh     change       -0.1360909E-03 Eh
   gradient norm :     0.0047570 Eh/α   predicted    -0.1031661E-03 ( -24.19%)
   displ. norm   :     0.4469761 α      lambda       -0.1740842E-03
   maximum displ.:     0.2993583 α      in ANC's #2, #1, #4, ...

........................................................................
.............................. CYCLE   35 ..............................
........................................................................
   1   -144.8133189 -0.144813E+03  0.803E-02    2.23       0.0  T
   2   -144.8133239 -0.503534E-05  0.446E-02    2.23       1.0  T
   3   -144.8133251 -0.115257E-05  0.550E-03    2.23       1.9  T
   4   -144.8133253 -0.273993E-06  0.328E-03    2.23       3.1  T
   5   -144.8133256 -0.289387E-06  0.139E-03    2.23       7.3  T
   6   -144.8133256 -0.191673E-07  0.103E-03    2.23       9.9  T
   7   -144.8133256 -0.775830E-08  0.441E-04    2.23      23.2  T
   8   -144.8133256 -0.435335E-08  0.162E-04    2.23      63.0  T
     SCC iter.                  ...        0 min,  0.993 sec
     gradient                   ...        0 min,  0.161 sec
 * total energy  :  -142.7253504 Eh     change       -0.1377942E-03 Eh
   gradient norm :     0.0046426 Eh/α   predicted    -0.1044369E-03 ( -24.21%)
   displ. norm   :     0.4108131 α      lambda       -0.1632584E-03
   maximum displ.:     0.2743157 α      in ANC's #2, #1, #8, ...

........................................................................
.............................. CYCLE   36 ..............................
........................................................................
   1   -144.8130666 -0.144813E+03  0.737E-02    2.23       0.0  T
   2   -144.8130704 -0.378248E-05  0.409E-02    2.23       1.0  T
   3   -144.8130713 -0.932087E-06  0.514E-03    2.23       2.0  T
   4   -144.8130714 -0.133210E-06  0.298E-03    2.23       3.4  T
   5   -144.8130717 -0.241990E-06  0.129E-03    2.23       7.9  T
   6   -144.8130717 -0.177375E-07  0.975E-04    2.23      10.5  T
   7   -144.8130717 -0.762083E-08  0.336E-04    2.23      30.3  T
     SCC iter.                  ...        0 min,  0.772 sec
     gradient                   ...        0 min,  0.110 sec
 * total energy  :  -142.7254803 Eh     change       -0.1298090E-03 Eh
   gradient norm :     0.0037728 Eh/α   predicted    -0.9540573E-04 ( -26.50%)
   displ. norm   :     0.3952507 α      lambda       -0.1472480E-03
   maximum displ.:     0.2646680 α      in ANC's #2, #1, #8, ...

........................................................................
.............................. CYCLE   37 ..............................
........................................................................
   1   -144.8134150 -0.144813E+03  0.686E-02    2.23       0.0  T
   2   -144.8134182 -0.318004E-05  0.381E-02    2.22       1.0  T
   3   -144.8134189 -0.755995E-06  0.493E-03    2.22       2.1  T
   4   -144.8134191 -0.157946E-06  0.289E-03    2.22       3.5  T
   5   -144.8134193 -0.240249E-06  0.122E-03    2.22       8.3  T
   6   -144.8134193 -0.114614E-07  0.939E-04    2.22      10.9  T
   7   -144.8134193 -0.876034E-08  0.332E-04    2.22      30.7  T
     SCC iter.                  ...        0 min,  0.664 sec
     gradient                   ...        0 min,  0.108 sec
 * total energy  :  -142.7255929 Eh     change       -0.1126684E-03 Eh
   gradient norm :     0.0036127 Eh/α   predicted    -0.8512623E-04 ( -24.45%)
   displ. norm   :     0.3912779 α      lambda       -0.1243595E-03
   maximum displ.:     0.2667361 α      in ANC's #2, #1, #8, ...

........................................................................
.............................. CYCLE   38 ..............................
........................................................................
   1   -144.8118353 -0.144812E+03  0.706E-02    2.23       0.0  T
   2   -144.8118388 -0.353175E-05  0.392E-02    2.23       1.0  T
   3   -144.8118398 -0.990174E-06  0.483E-03    2.23       2.1  T
   4   -144.8118398 -0.260891E-07  0.265E-03    2.23       3.8  T
   5   -144.8118400 -0.219206E-06  0.118E-03    2.23       8.7  T
   6   -144.8118400 -0.111793E-07  0.891E-04    2.23      11.5  T
   7   -144.8118400 -0.820239E-08  0.291E-04    2.23      35.1  T
     SCC iter.                  ...        0 min,  0.599 sec
     gradient                   ...        0 min,  0.125 sec
 * total energy  :  -142.7256892 Eh     change       -0.9627893E-04 Eh
   gradient norm :     0.0033637 Eh/α   predicted    -0.7170122E-04 ( -25.53%)
   displ. norm   :     0.3427751 α      lambda       -0.1134116E-03
   maximum displ.:     0.2302824 α      in ANC's #2, #1, #8, ...

........................................................................
.............................. CYCLE   39 ..............................
........................................................................
   1   -144.8123867 -0.144812E+03  0.597E-02    2.23       0.0  T
   2   -144.8123891 -0.244345E-05  0.331E-02    2.23       1.0  T
   3   -144.8123898 -0.629502E-06  0.422E-03    2.23       2.4  T
   4   -144.8123898 -0.456255E-07  0.238E-03    2.22       4.3  T
   5   -144.8123900 -0.187649E-06  0.995E-04    2.23      10.3  T
   6   -144.8123900 -0.628393E-08  0.748E-04    2.23      13.7  T
     SCC iter.                  ...        0 min,  0.423 sec
     gradient                   ...        0 min,  0.104 sec
 * total energy  :  -142.7257811 Eh     change       -0.9190151E-04 Eh
   gradient norm :     0.0037255 Eh/α   predicted    -0.6336923E-04 ( -31.05%)
   displ. norm   :     0.3773104 α      lambda       -0.1171087E-03
   maximum displ.:     0.2533976 α      in ANC's #2, #1, #8, ...

........................................................................
.............................. CYCLE   40 ..............................
........................................................................
   1   -144.8122430 -0.144812E+03  0.631E-02    2.23       0.0  T
   2   -144.8122456 -0.255627E-05  0.351E-02    2.23       1.0  T
   3   -144.8122463 -0.773818E-06  0.421E-03    2.23       2.4  T
   4   -144.8122463  0.214959E-07  0.204E-03    2.22       5.0  T
   5   -144.8122464 -0.138090E-06  0.104E-03    2.23       9.8  T
   6   -144.8122465 -0.844125E-08  0.774E-04    2.22      13.2  T
   7   -144.8122465 -0.629495E-08  0.241E-04    2.22      42.4  T
     SCC iter.                  ...        0 min,  0.395 sec
     gradient                   ...        0 min,  0.088 sec
 * total energy  :  -142.7258796 Eh     change       -0.9850029E-04 Eh
   gradient norm :     0.0034729 Eh/α   predicted    -0.6689236E-04 ( -32.09%)
   displ. norm   :     0.4153551 α      lambda       -0.1289066E-03
   maximum displ.:     0.2737511 α      in ANC's #2, #1, #8, ...

........................................................................
.............................. CYCLE   41 ..............................
........................................................................
   1   -144.8129227 -0.144813E+03  0.672E-02    2.23       0.0  T
   2   -144.8129254 -0.270462E-05  0.372E-02    2.22       1.0  T
   3   -144.8129262 -0.746950E-06  0.467E-03    2.22       2.2  T
   4   -144.8129261  0.101797E-07  0.254E-03    2.22       4.0  T
   5   -144.8129264 -0.216356E-06  0.110E-03    2.22       9.3  T
   6   -144.8129264 -0.833313E-08  0.817E-04    2.22      12.5  T
   7   -144.8129264 -0.568826E-08  0.293E-04    2.22      34.8  T
     SCC iter.                  ...        0 min,  0.584 sec
     gradient                   ...        0 min,  0.157 sec
 * total energy  :  -142.7259854 Eh     change       -0.1058075E-03 Eh
   gradient norm :     0.0035730 Eh/α   predicted    -0.7557604E-04 ( -28.57%)
   displ. norm   :     0.4547682 α      lambda       -0.1214396E-03
   maximum displ.:     0.2986127 α      in ANC's #2, #1, #8, ...

........................................................................
.............................. CYCLE   42 ..............................
........................................................................
   1   -144.8128738 -0.144813E+03  0.696E-02    2.22       0.0  T
   2   -144.8128765 -0.271328E-05  0.388E-02    2.22       1.0  T
   3   -144.8128772 -0.691549E-06  0.479E-03    2.22       2.1  T
   4   -144.8128772 -0.469489E-07  0.276E-03    2.22       3.7  T
   5   -144.8128775 -0.224947E-06  0.115E-03    2.22       8.9  T
   6   -144.8128775 -0.971016E-08  0.860E-04    2.22      11.9  T
   7   -144.8128775 -0.571558E-08  0.339E-04    2.22      30.1  T
     SCC iter.                  ...        0 min,  0.451 sec
     gradient                   ...        0 min,  0.153 sec
 * total energy  :  -142.7260819 Eh     change       -0.9643981E-04 Eh
   gradient norm :     0.0032195 Eh/α   predicted    -0.7327901E-04 ( -24.02%)
   displ. norm   :     0.4146022 α      lambda       -0.1021578E-03
   maximum displ.:     0.2716441 α      in ANC's #2, #1, #8, ...
 * RMSD in coord.:     0.7320295 α      energy gain  -0.2645151E-02 Eh

generating ANC from model Hessian ...
Using Lindh-Hessian (1995)
 Shifting diagonal of input Hessian by    9.8976766811264567E-003
 Lowest  eigenvalues of input Hessian
    0.000000    0.000000    0.000000    0.000000    0.000000    0.000000
    0.010000    0.010042    0.010132    0.010223    0.010259    0.010483
    0.010589    0.010730    0.010858    0.011031    0.011173    0.011356
 Highest eigenvalues
    2.138236    2.141058    2.159282    2.162585    2.164729    2.184921


........................................................................
.............................. CYCLE   43 ..............................
........................................................................
   1   -144.8141431 -0.144814E+03  0.623E-02    2.22       0.0  T
   2   -144.8141455 -0.235989E-05  0.341E-02    2.22       1.0  T
   3   -144.8141460 -0.492153E-06  0.474E-03    2.22       2.2  T
   4   -144.8141461 -0.155804E-06  0.288E-03    2.22       3.5  T
   5   -144.8141463 -0.195224E-06  0.119E-03    2.22       8.6  T
   6   -144.8141463 -0.100880E-07  0.903E-04    2.22      11.3  T
   7   -144.8141464 -0.633779E-08  0.457E-04    2.22      22.4  T
     SCC iter.                  ...        0 min,  0.181 sec
     gradient                   ...        0 min,  0.097 sec
 * total energy  :  -142.7261580 Eh     change       -0.7616871E-04 Eh
   gradient norm :     0.0032498 Eh/α   predicted     0.0000000E+00 (-100.00%)
   displ. norm   :     0.0432631 α      lambda       -0.4553449E-04
   maximum displ.:     0.0160922 α      in ANC's #2, #1, #30, ...

........................................................................
.............................. CYCLE   44 ..............................
........................................................................
   1   -144.8145407 -0.144815E+03  0.187E-02    2.22       0.0  T
   2   -144.8145411 -0.426435E-06  0.107E-02    2.22       1.0  T
   3   -144.8145411  0.357905E-07  0.202E-03    2.22       5.1  T
   4   -144.8145412 -0.171428E-06  0.975E-04    2.22      10.5  T
   5   -144.8145413 -0.117414E-07  0.453E-04    2.22      22.5  T
     SCC iter.                  ...        0 min,  0.243 sec
     gradient                   ...        0 min,  0.085 sec
 * total energy  :  -142.7261954 Eh     change       -0.3734598E-04 Eh
   gradient norm :     0.0018129 Eh/α   predicted    -0.2304352E-04 ( -38.30%)
   displ. norm   :     0.1915139 α      lambda       -0.8779478E-04
   maximum displ.:     0.0799456 α      in ANC's #2, #1, #11, ...

........................................................................
.............................. CYCLE   45 ..............................
........................................................................
   1   -144.8151034 -0.144815E+03  0.743E-02    2.23       0.0  T
   2   -144.8151107 -0.729404E-05  0.419E-02    2.23       1.0  T
   3   -144.8151116 -0.896174E-06  0.657E-03    2.23       1.6  T
   4   -144.8151129 -0.128843E-05  0.361E-03    2.23       2.8  T
   5   -144.8151131 -0.211438E-06  0.149E-03    2.23       6.9  T
   6   -144.8151131 -0.242275E-07  0.115E-03    2.23       8.9  T
   7   -144.8151131 -0.145661E-07  0.750E-04    2.23      13.6  T
   8   -144.8151131 -0.134204E-07  0.211E-04    2.23      48.3  T
     SCC iter.                  ...        0 min,  0.334 sec
     gradient                   ...        0 min,  0.068 sec
 * total energy  :  -142.7262538 Eh     change       -0.5841846E-04 Eh
   gradient norm :     0.0042421 Eh/α   predicted    -0.4461376E-04 ( -23.63%)
   displ. norm   :     0.0378364 α      lambda       -0.2842823E-04
   maximum displ.:     0.0205862 α      in ANC's #2, #1, #11, ...

........................................................................
.............................. CYCLE   46 ..............................
........................................................................
   1   -144.8149734 -0.144815E+03  0.984E-03    2.23       0.0  T
   2   -144.8149736 -0.148794E-06  0.553E-03    2.23       1.8  T
   3   -144.8149736  0.999262E-08  0.113E-03    2.23       9.1  T
   4   -144.8149736 -0.604943E-07  0.573E-04    2.23      17.8  T
   5   -144.8149736 -0.369886E-08  0.302E-04    2.23      33.8  T
     SCC iter.                  ...        0 min,  0.267 sec
     gradient                   ...        0 min,  0.099 sec
 * total energy  :  -142.7262786 Eh     change       -0.2479507E-04 Eh
   gradient norm :     0.0029493 Eh/α   predicted    -0.1423876E-04 ( -42.57%)
   displ. norm   :     0.1576844 α      lambda       -0.7898251E-04
   maximum displ.:     0.0835279 α      in ANC's #2, #1, #11, ...

........................................................................
.............................. CYCLE   47 ..............................
........................................................................
   1   -144.8142777 -0.144814E+03  0.410E-02    2.22       0.0  T
   2   -144.8142803 -0.258383E-05  0.228E-02    2.22       1.0  T
   3   -144.8142806 -0.286412E-06  0.393E-03    2.22       2.6  T
   4   -144.8142811 -0.532930E-06  0.227E-03    2.22       4.5  T
   5   -144.8142812 -0.715409E-07  0.108E-03    2.22       9.5  T
   6   -144.8142812 -0.130219E-07  0.823E-04    2.22      12.4  T
   7   -144.8142812 -0.821322E-08  0.478E-04    2.22      21.3  T
     SCC iter.                  ...        0 min,  0.324 sec
     gradient                   ...        0 min,  0.086 sec
 * total energy  :  -142.7263313 Eh     change       -0.5268115E-04 Eh
   gradient norm :     0.0015711 Eh/α   predicted    -0.4047338E-04 ( -23.17%)
   displ. norm   :     0.2216444 α      lambda       -0.3479393E-04
   maximum displ.:     0.1182366 α      in ANC's #2, #1, #11, ...

........................................................................
.............................. CYCLE   48 ..............................
........................................................................
   1   -144.8133569 -0.144813E+03  0.598E-02    2.22       0.0  T
   2   -144.8133619 -0.498628E-05  0.334E-02    2.22       1.0  T
   3   -144.8133630 -0.114331E-05  0.432E-03    2.22       2.4  T
   4   -144.8133633 -0.284596E-06  0.255E-03    2.22       4.0  T
   5   -144.8133634 -0.147596E-06  0.856E-04    2.22      11.9  T
   6   -144.8133634 -0.108355E-07  0.638E-04    2.22      16.0  T
     SCC iter.                  ...        0 min,  0.368 sec
     gradient                   ...        0 min,  0.123 sec
 * total energy  :  -142.7263662 Eh     change       -0.3491573E-04 Eh
   gradient norm :     0.0027419 Eh/α   predicted    -0.1777743E-04 ( -49.08%)
   displ. norm   :     0.1020162 α      lambda       -0.2471430E-04
   maximum displ.:     0.0567490 α      in ANC's #2, #1, #11, ...

........................................................................
.............................. CYCLE   49 ..............................
........................................................................
   1   -144.8137609 -0.144814E+03  0.247E-02    2.22       0.0  T
   2   -144.8137616 -0.758079E-06  0.139E-02    2.22       1.0  T
   3   -144.8137618 -0.180345E-06  0.170E-03    2.22       6.0  T
   4   -144.8137618 -0.323946E-07  0.967E-04    2.22      10.6  T
   5   -144.8137619 -0.236207E-07  0.291E-04    2.22      35.0  T
     SCC iter.                  ...        0 min,  0.261 sec
     gradient                   ...        0 min,  0.101 sec
 * total energy  :  -142.7263869 Eh     change       -0.2074060E-04 Eh
   gradient norm :     0.0017792 Eh/α   predicted    -0.1248782E-04 ( -39.79%)
   displ. norm   :     0.2216386 α      lambda       -0.3228310E-04
   maximum displ.:     0.1264536 α      in ANC's #2, #1, #11, ...

........................................................................
.............................. CYCLE   50 ..............................
........................................................................
   1   -144.8147924 -0.144815E+03  0.443E-02    2.22       0.0  T
   2   -144.8147945 -0.204690E-05  0.251E-02    2.23       1.0  T
   3   -144.8147948 -0.353473E-06  0.334E-03    2.22       3.1  T
   4   -144.8147951 -0.253862E-06  0.193E-03    2.22       5.3  T
   5   -144.8147952 -0.741508E-07  0.739E-04    2.22      13.8  T
   6   -144.8147952 -0.594019E-08  0.572E-04    2.22      17.8  T
     SCC iter.                  ...        0 min,  0.319 sec
     gradient                   ...        0 min,  0.087 sec
 * total energy  :  -142.7264165 Eh     change       -0.2962908E-04 Eh
   gradient norm :     0.0014924 Eh/α   predicted    -0.1649758E-04 ( -44.32%)
   displ. norm   :     0.0990685 α      lambda       -0.1225482E-04
   maximum displ.:     0.0600291 α      in ANC's #2, #1, #4, ...

........................................................................
.............................. CYCLE   51 ..............................
........................................................................
   1   -144.8150239 -0.144815E+03  0.135E-02    2.22       0.0  T
   2   -144.8150240 -0.867746E-07  0.764E-03    2.22       1.3  T
   3   -144.8150240 -0.110426E-07  0.103E-03    2.22       9.9  T
   4   -144.8150240 -0.182108E-07  0.640E-04    2.22      15.9  T
   5   -144.8150240 -0.781148E-08  0.322E-04    2.22      31.7  T
     SCC iter.                  ...        0 min,  0.201 sec
     gradient                   ...        0 min,  0.104 sec
 * total energy  :  -142.7264327 Eh     change       -0.1619077E-04 Eh
   gradient norm :     0.0013758 Eh/α   predicted    -0.6155361E-05 ( -61.98%)
   displ. norm   :     0.1553557 α      lambda       -0.2560508E-04
   maximum displ.:     0.0920003 α      in ANC's #2, #1, #4, ...

........................................................................
.............................. CYCLE   52 ..............................
........................................................................
   1   -144.8150201 -0.144815E+03  0.252E-02    2.22       0.0  T
   2   -144.8150206 -0.565634E-06  0.141E-02    2.22       1.0  T
   3   -144.8150207 -0.100129E-06  0.188E-03    2.22       5.4  T
   4   -144.8150208 -0.603218E-07  0.107E-03    2.22       9.6  T
   5   -144.8150208 -0.205149E-07  0.440E-04    2.22      23.2  T
   6   -144.8150208 -0.252658E-08  0.323E-04    2.22      31.6  T
     SCC iter.                  ...        0 min,  0.295 sec
     gradient                   ...        0 min,  0.101 sec
 * total energy  :  -142.7264636 Eh     change       -0.3090071E-04 Eh
   gradient norm :     0.0010181 Eh/α   predicted    -0.1294058E-04 ( -58.12%)
   displ. norm   :     0.2283402 α      lambda       -0.2889543E-04
   maximum displ.:     0.1380822 α      in ANC's #2, #1, #4, ...

........................................................................
.............................. CYCLE   53 ..............................
........................................................................
   1   -144.8146329 -0.144815E+03  0.355E-02    2.23       0.0  T
   2   -144.8146341 -0.117721E-05  0.198E-02    2.22       1.0  T
   3   -144.8146343 -0.280550E-06  0.245E-03    2.22       4.2  T
   4   -144.8146344 -0.442086E-07  0.137E-03    2.22       7.5  T
   5   -144.8146344 -0.424637E-07  0.562E-04    2.22      18.1  T
   6   -144.8146344 -0.453264E-08  0.406E-04    2.22      25.1  T
     SCC iter.                  ...        0 min,  0.261 sec
     gradient                   ...        0 min,  0.094 sec
 * total energy  :  -142.7264971 Eh     change       -0.3344154E-04 Eh
   gradient norm :     0.0014040 Eh/α   predicted    -0.1478469E-04 ( -55.79%)
   displ. norm   :     0.2395063 α      lambda       -0.2531182E-04
   maximum displ.:     0.1492280 α      in ANC's #2, #1, #4, ...

........................................................................
.............................. CYCLE   54 ..............................
........................................................................
   1   -144.8144426 -0.144814E+03  0.338E-02    2.23       0.0  T
   2   -144.8144436 -0.984507E-06  0.187E-02    2.23       1.0  T
   3   -144.8144439 -0.239536E-06  0.241E-03    2.23       4.2  T
   4   -144.8144439 -0.450537E-07  0.140E-03    2.23       7.3  T
   5   -144.8144439 -0.479032E-07  0.579E-04    2.23      17.6  T
   6   -144.8144440 -0.353779E-08  0.433E-04    2.23      23.6  T
     SCC iter.                  ...        0 min,  0.330 sec
     gradient                   ...        0 min,  0.086 sec
 * total energy  :  -142.7265290 Eh     change       -0.3188778E-04 Eh
   gradient norm :     0.0013978 Eh/α   predicted    -0.1297959E-04 ( -59.30%)
   displ. norm   :     0.2685031 α      lambda       -0.2973260E-04
   maximum displ.:     0.1700235 α      in ANC's #2, #1, #4, ...

........................................................................
.............................. CYCLE   55 ..............................
........................................................................
   1   -144.8144290 -0.144814E+03  0.345E-02    2.23       0.0  T
   2   -144.8144300 -0.951451E-06  0.193E-02    2.23       1.0  T
   3   -144.8144302 -0.233074E-06  0.235E-03    2.23       4.3  T
   4   -144.8144303 -0.477142E-07  0.137E-03    2.23       7.4  T
   5   -144.8144303 -0.472857E-07  0.572E-04    2.23      17.8  T
   6   -144.8144303 -0.339784E-08  0.427E-04    2.23      23.9  T
     SCC iter.                  ...        0 min,  0.246 sec
     gradient                   ...        0 min,  0.086 sec
 * total energy  :  -142.7265685 Eh     change       -0.3955394E-04 Eh
   gradient norm :     0.0010801 Eh/α   predicted    -0.1534666E-04 ( -61.20%)
   displ. norm   :     0.3659003 α      lambda       -0.4097173E-04
   maximum displ.:     0.2344590 α      in ANC's #2, #1, #4, ...

........................................................................
.............................. CYCLE   56 ..............................
........................................................................
   1   -144.8143289 -0.144814E+03  0.469E-02    2.23       0.0  T
   2   -144.8143305 -0.160216E-05  0.261E-02    2.23       1.0  T
   3   -144.8143309 -0.381399E-06  0.333E-03    2.23       3.1  T
   4   -144.8143310 -0.895634E-07  0.199E-03    2.23       5.1  T
   5   -144.8143311 -0.105326E-06  0.804E-04    2.23      12.7  T
   6   -144.8143311 -0.482029E-08  0.590E-04    2.23      17.3  T
     SCC iter.                  ...        0 min,  0.246 sec
     gradient                   ...        0 min,  0.085 sec
 * total energy  :  -142.7266214 Eh     change       -0.5290091E-04 Eh
   gradient norm :     0.0009510 Eh/α   predicted    -0.2170712E-04 ( -58.97%)
   displ. norm   :     0.4350822 α      lambda       -0.4310650E-04
   maximum displ.:     0.2814929 α      in ANC's #2, #1, #4, ...

........................................................................
.............................. CYCLE   57 ..............................
........................................................................
   1   -144.8140322 -0.144814E+03  0.541E-02    2.23       0.0  T
   2   -144.8140343 -0.207205E-05  0.303E-02    2.23       1.0  T
   3   -144.8140348 -0.513798E-06  0.374E-03    2.23       2.7  T
   4   -144.8140349 -0.109545E-06  0.225E-03    2.23       4.5  T
   5   -144.8140350 -0.142255E-06  0.948E-04    2.23      10.8  T
   6   -144.8140350 -0.585663E-08  0.684E-04    2.23      14.9  T
     SCC iter.                  ...        0 min,  0.303 sec
     gradient                   ...        0 min,  0.096 sec
 * total energy  :  -142.7266750 Eh     change       -0.5355411E-04 Eh
   gradient norm :     0.0012801 Eh/α   predicted    -0.2336783E-04 ( -56.37%)
   displ. norm   :     0.4293870 α      lambda       -0.3684570E-04
   maximum displ.:     0.2804894 α      in ANC's #2, #1, #4, ...

........................................................................
.............................. CYCLE   58 ..............................
........................................................................
   1   -144.8141544 -0.144814E+03  0.555E-02    2.23       0.0  T
   2   -144.8141565 -0.213401E-05  0.308E-02    2.23       1.0  T
   3   -144.8141571 -0.595672E-06  0.392E-03    2.23       2.6  T
   4   -144.8141571 -0.251985E-07  0.231E-03    2.23       4.4  T
   5   -144.8141573 -0.166156E-06  0.102E-03    2.23      10.0  T
   6   -144.8141573 -0.673290E-08  0.738E-04    2.23      13.8  T
   7   -144.8141573 -0.600616E-08  0.226E-04    2.23      45.1  T
     SCC iter.                  ...        0 min,  0.226 sec
     gradient                   ...        0 min,  0.060 sec
 * total energy  :  -142.7267224 Eh     change       -0.4743489E-04 Eh
   gradient norm :     0.0013319 Eh/α   predicted    -0.1993680E-04 ( -57.97%)
   displ. norm   :     0.4399776 α      lambda       -0.3597261E-04
   maximum displ.:     0.2895072 α      in ANC's #2, #1, #4, ...

........................................................................
.............................. CYCLE   59 ..............................
........................................................................
   1   -144.8143244 -0.144814E+03  0.587E-02    2.23       0.0  T
   2   -144.8143268 -0.239052E-05  0.322E-02    2.23       1.0  T
   3   -144.8143275 -0.688873E-06  0.427E-03    2.22       2.4  T
   4   -144.8143275 -0.759712E-10  0.245E-03    2.22       4.2  T
   5   -144.8143277 -0.200404E-06  0.114E-03    2.22       9.0  T
   6   -144.8143277 -0.772789E-08  0.803E-04    2.22      12.7  T
   7   -144.8143277 -0.758192E-08  0.239E-04    2.22      42.7  T
     SCC iter.                  ...        0 min,  0.320 sec
     gradient                   ...        0 min,  0.083 sec
 * total energy  :  -142.7267699 Eh     change       -0.4752790E-04 Eh
   gradient norm :     0.0012019 Eh/α   predicted    -0.1953801E-04 ( -58.89%)
   displ. norm   :     0.5115572 α      lambda       -0.4193386E-04
   maximum displ.:     0.3384206 α      in ANC's #2, #1, #4, ...

........................................................................
.............................. CYCLE   60 ..............................
........................................................................
   1   -144.8143225 -0.144814E+03  0.695E-02    2.22       0.0  T
   2   -144.8143257 -0.322204E-05  0.383E-02    2.22       1.0  T
   3   -144.8143266 -0.939307E-06  0.501E-03    2.22       2.0  T
   4   -144.8143266 -0.504087E-08  0.288E-03    2.22       3.5  T
   5   -144.8143269 -0.262381E-06  0.137E-03    2.22       7.5  T
   6   -144.8143269 -0.114522E-07  0.995E-04    2.22      10.3  T
   7   -144.8143269 -0.111642E-07  0.300E-04    2.22      34.0  T
     SCC iter.                  ...        0 min,  0.293 sec
     gradient                   ...        0 min,  0.080 sec
 * total energy  :  -142.7268207 Eh     change       -0.5075806E-04 Eh
   gradient norm :     0.0010909 Eh/α   predicted    -0.2340949E-04 ( -53.88%)
   displ. norm   :     0.4558963 α      lambda       -0.3316937E-04
   maximum displ.:     0.3036099 α      in ANC's #2, #1, #7, ...

........................................................................
.............................. CYCLE   61 ..............................
........................................................................
   1   -144.8147938 -0.144815E+03  0.646E-02    2.22       0.0  T
   2   -144.8147965 -0.270030E-05  0.353E-02    2.22       1.0  T
   3   -144.8147973 -0.826269E-06  0.470E-03    2.22       2.2  T
   4   -144.8147973  0.209588E-07  0.264E-03    2.22       3.9  T
   5   -144.8147975 -0.214683E-06  0.129E-03    2.22       7.9  T
   6   -144.8147975 -0.994211E-08  0.917E-04    2.22      11.1  T
   7   -144.8147975 -0.101037E-07  0.273E-04    2.22      37.4  T
     SCC iter.                  ...        0 min,  0.266 sec
     gradient                   ...        0 min,  0.069 sec
 * total energy  :  -142.7268550 Eh     change       -0.3431363E-04 Eh
   gradient norm :     0.0008448 Eh/α   predicted    -0.1811746E-04 ( -47.20%)
[...]
    32   6 C        2.978     0.014    27.685     8.631
    33   6 C        2.978     0.019    27.588     8.616
    34   6 C        2.914     0.090    25.993     8.360
    35   6 C        2.914     0.091    25.974     8.357
    36   6 C        2.913     0.090    25.995     8.361
    37   6 C        3.800     0.058    19.606     6.304
    38   6 C        3.837     0.058    19.584     6.296
    39   6 C        3.829     0.062    19.515     6.286
    40   6 C        3.828     0.065    19.473     6.279
    41   6 C        3.825     0.057    19.600     6.300
    42   6 C        3.831     0.056    19.609     6.300
    43  35 Br       1.063    -0.187   190.250    22.240
    44  35 Br       1.063    -0.187   190.225    22.238
    45  35 Br       1.063    -0.189   190.287    22.242
    46   7 N        1.841    -0.252    27.415     7.760
    47   7 N        1.832    -0.247    27.301     7.743
    48   7 N        1.837    -0.255    27.490     7.770
    49   7 N        1.836    -0.253    27.436     7.762
    50   7 N        1.836    -0.258    27.555     7.779
    51   7 N        1.834    -0.249    27.343     7.749
    52   1 H        0.924     0.036     2.502     2.474
    53   1 H        0.924     0.030     2.584     2.514
    54   1 H        0.924     0.050     2.316     2.380
    55   1 H        0.924     0.037     2.491     2.468
    56   1 H        0.924     0.042     2.421     2.433
    57   1 H        0.924     0.043     2.414     2.430
    58   1 H        0.924     0.038     2.479     2.462
    59   1 H        0.924     0.043     2.415     2.430
    60   1 H        0.924     0.044     2.403     2.424
    61   1 H        0.924     0.040     2.448     2.447
    62   1 H        0.924     0.044     2.401     2.423
    63   1 H        0.924     0.040     2.449     2.447
    64   1 H        0.924     0.032     2.556     2.500
    65   1 H        0.924     0.048     2.348     2.396
    66   1 H        0.924     0.038     2.472     2.459
    67   1 H        0.924     0.037     2.495     2.470
    68   1 H        0.924     0.048     2.343     2.394
    69   1 H        0.924     0.046     2.366     2.406
    70   1 H        0.924     0.049     2.327     2.386
    71   1 H        0.924     0.041     2.434     2.440
    72   1 H        0.924     0.036     2.507     2.476
    73   1 H        0.924     0.044     2.402     2.424
    74   1 H        0.924     0.045     2.384     2.415
    75   1 H        0.924     0.036     2.503     2.474
    76   1 H        0.926     0.071     2.078     2.254
    77   1 H        0.926     0.069     2.095     2.263
    78   1 H        0.926     0.077     2.005     2.214
    79   1 H        0.926     0.069     2.094     2.263
    80   1 H        0.926     0.085     1.930     2.173
    81   1 H        0.926     0.084     1.943     2.180
    82   1 H        0.926     0.069     2.095     2.263
    83   1 H        0.926     0.064     2.150     2.293
    84   1 H        0.926     0.079     1.987     2.204
    85   1 H        0.924     0.018     2.759     2.598
    86   1 H        0.923     0.008     2.922     2.673
    87   1 H        0.923     0.003     3.003     2.710
    88   1 H        0.923     0.013     2.838     2.634
    89   1 H        0.923     0.003     3.010     2.713
    90   1 H        0.923     0.015     2.804     2.619
    91   1 H        0.923     0.046     2.365     2.405
    92   1 H        0.922     0.014     2.825     2.629
    93   1 H        0.923     0.012     2.857     2.643
    94   1 H        0.923     0.016     2.801     2.617
    95   1 H        0.923     0.022     2.699     2.569
    96   1 H        0.923     0.020     2.738     2.588

 Mol. C6AA /au·bohr⁶  :     123091.054930
 Mol. C8AA /au·bohr⁸  :    3378817.241129
 Mol. α(0) /au        :        546.866636


Wiberg/Mayer (AO) data.
largest (>0.10) Wiberg bond orders for each atom

 ---------------------------------------------------------------------------
     #   Z sym  total        # sym  WBO       # sym  WBO       # sym  WBO
 ---------------------------------------------------------------------------
     1   6 C    3.998 --     2 C    1.009     7 C    1.009    52 H    0.977
                            53 H    0.976
     2   6 C    3.997 --     8 C    1.010     1 C    1.009    55 H    0.976
                            54 H    0.975
     3   6 C    3.996 --     9 C    1.010     4 C    1.005    57 H    0.978
                            56 H    0.977
     4   6 C    3.996 --     3 C    1.005    10 C    1.003    58 H    0.981
                            59 H    0.980
     5   6 C    3.996 --     6 C    1.009    11 C    1.007    61 H    0.977
                            60 H    0.975
     6   6 C    3.996 --     5 C    1.009    12 C    1.007    63 H    0.977
                            62 H    0.975
     7   6 C    3.996 --     1 C    1.009    37 C    0.985    65 H    0.974
                            64 H    0.971
     8   6 C    3.993 --     2 C    1.010    38 C    0.982    66 H    0.975
                            67 H    0.975
     9   6 C    3.991 --     3 C    1.010    39 C    0.978    69 H    0.976
                            68 H    0.973
    10   6 C    3.990 --     4 C    1.003    40 C    0.979    70 H    0.977
                            71 H    0.976
    11   6 C    3.989 --     5 C    1.007    73 H    0.976    72 H    0.975
                            41 C    0.967
    12   6 C    3.989 --     6 C    1.007    74 H    0.976    75 H    0.976
                            42 C    0.967
    13   6 C    3.981 --    30 C    1.401    28 C    1.376    76 H    0.961
    14   6 C    3.981 --    29 C    1.393    31 C    1.380    77 H    0.962
    15   6 C    3.981 --    33 C    1.401    32 C    1.377    78 H    0.962
    16   6 C    3.977 --    34 C    1.408    28 C    1.378    79 H    0.964
    17   6 C    3.981 --    35 C    1.430    29 C    1.355    80 H    0.962
    18   6 C    3.980 --    34 C    1.434    30 C    1.351    81 H    0.962
    19   6 C    3.979 --    35 C    1.411    31 C    1.376    82 H    0.965
    20   6 C    3.979 --    36 C    1.415    32 C    1.370    83 H    0.965
    21   6 C    3.980 --    36 C    1.428    33 C    1.357    84 H    0.963
    22   6 C    3.967 --    46 N    1.842    28 C    1.071    85 H    0.938
    23   6 C    3.966 --    47 N    1.844    29 C    1.082    86 H    0.934
    24   6 C    3.968 --    48 N    1.836    30 C    1.079    87 H    0.937
    25   6 C    3.968 --    49 N    1.855    31 C    1.071    88 H    0.937
    26   6 C    3.967 --    50 N    1.832    32 C    1.081    89 H    0.938
    27   6 C    3.967 --    51 N    1.856    33 C    1.070    90 H    0.935
    28   6 C    3.988 --    16 C    1.378    13 C    1.376    22 C    1.071
    29   6 C    3.989 --    14 C    1.393    17 C    1.355    23 C    1.082
    30   6 C    3.989 --    13 C    1.401    18 C    1.351    24 C    1.079
    31   6 C    3.988 --    14 C    1.380    19 C    1.376    25 C    1.071
    32   6 C    3.988 --    15 C    1.377    20 C    1.370    26 C    1.081
    33   6 C    3.989 --    15 C    1.401    21 C    1.357    27 C    1.070
    34   6 C    3.934 --    18 C    1.434    16 C    1.408    43 Br   0.968
    35   6 C    3.934 --    17 C    1.430    19 C    1.411    44 Br   0.968
    36   6 C    3.934 --    21 C    1.428    20 C    1.415    45 Br   0.966
    37   6 C    3.974 --    46 N    1.029     7 C    0.985    91 H    0.931
                            38 C    0.928
    38   6 C    3.976 --    47 N    1.022     8 C    0.982    92 H    0.950
                            37 C    0.928
    39   6 C    3.973 --    48 N    1.027     9 C    0.978    93 H    0.954
                            40 C    0.913
    40   6 C    3.973 --    50 N    1.028    10 C    0.979    94 H    0.953
                            39 C    0.913
    41   6 C    3.979 --    49 N    1.018    11 C    0.967    42 C    0.956
                            95 H    0.952
    42   6 C    3.979 --    51 N    1.019    12 C    0.967    41 C    0.956
                            96 H    0.952
    43  35 Br   1.093 --    34 C    0.968
    44  35 Br   1.093 --    35 C    0.968
    45  35 Br   1.091 --    36 C    0.966
    46   7 N    3.092 --    22 C    1.842    37 C    1.029
    47   7 N    3.074 --    23 C    1.844    38 C    1.022
    48   7 N    3.073 --    24 C    1.836    39 C    1.027
    49   7 N    3.074 --    25 C    1.855    41 C    1.018
    50   7 N    3.073 --    26 C    1.832    40 C    1.028
    51   7 N    3.074 --    27 C    1.856    42 C    1.019
    52   1 H    0.999 --     1 C    0.977
    53   1 H    0.999 --     1 C    0.976
    54   1 H    0.997 --     2 C    0.975
    55   1 H    0.998 --     2 C    0.976
    56   1 H    0.998 --     3 C    0.977
    57   1 H    0.998 --     3 C    0.978
    58   1 H    0.999 --     4 C    0.981
    59   1 H    0.997 --     4 C    0.980
    60   1 H    0.998 --     5 C    0.975
    61   1 H    0.998 --     5 C    0.977
    62   1 H    0.996 --     6 C    0.975
    63   1 H    0.998 --     6 C    0.977
    64   1 H    0.999 --     7 C    0.971
    65   1 H    0.997 --     7 C    0.974
    66   1 H    0.998 --     8 C    0.975
    67   1 H    0.998 --     8 C    0.975
    68   1 H    0.996 --     9 C    0.973
    69   1 H    0.997 --     9 C    0.976
    70   1 H    0.998 --    10 C    0.977
    71   1 H    0.996 --    10 C    0.976
    72   1 H    0.997 --    11 C    0.975
    73   1 H    0.998 --    11 C    0.976
    74   1 H    0.998 --    12 C    0.976
    75   1 H    0.997 --    12 C    0.976
    76   1 H    0.994 --    13 C    0.961
    77   1 H    0.994 --    14 C    0.962
    78   1 H    0.993 --    15 C    0.962
    79   1 H    0.995 --    16 C    0.964
    80   1 H    0.992 --    17 C    0.962
    81   1 H    0.993 --    18 C    0.962
    82   1 H    0.995 --    19 C    0.965
    83   1 H    0.995 --    20 C    0.965
    84   1 H    0.993 --    21 C    0.963
    85   1 H    0.999 --    22 C    0.938
    86   1 H    0.999 --    23 C    0.934
    87   1 H    0.999 --    24 C    0.937
    88   1 H    0.999 --    25 C    0.937
    89   1 H    0.999 --    26 C    0.938
    90   1 H    0.999 --    27 C    0.935
    91   1 H    0.992 --    37 C    0.931
    92   1 H    1.000 --    38 C    0.950
    93   1 H    1.000 --    39 C    0.954
    94   1 H    1.000 --    40 C    0.953
    95   1 H    0.999 --    41 C    0.952
    96   1 H    0.999 --    42 C    0.952
 ---------------------------------------------------------------------------

Topologies differ in total number of bonds
Writing topology from bond orders to xtbtopo.mol

molecular dipole:
                 x           y           z       tot (Debye)
 q only:        1.198       0.659      -1.840
   full:        1.713       0.909      -2.397       7.836
molecular quadrupole (traceless):
                xx          xy          yy          xz          yz          zz
 q only:       11.560      18.639      -7.029      -6.912      -2.477      -4.531
  q+dip:        6.213      31.936      -9.586      -1.501      -4.828       3.373
   full:        9.257      33.291     -13.254       3.535      -4.467       3.997

           -------------------------------------------------
          |                Geometry Summary                 |
           -------------------------------------------------

      molecular mass/u    :      873.5590441
   center of mass at/Å    :       -0.5834148      -0.1748591       0.8761995
  moments of inertia/u·Å² :        0.1165706E+05   0.2245091E+05   0.3045695E+05
rotational constants/cm⁻¹ :        0.1446131E-02   0.7508662E-03   0.5534905E-03

 * 91 selected distances

     #   Z          #   Z                                           value/Å
     1   6 C        2   6 C                                       1.5237686
     3   6 C        4   6 C                                       1.5335425
     5   6 C        6   6 C                                       1.5263199
     1   6 C        7   6 C                                       1.5246831
     2   6 C        8   6 C                                       1.5227946
     3   6 C        9   6 C                                       1.5237745
     4   6 C       10   6 C                                       1.5336362
     5   6 C       11   6 C                                       1.5253580
     6   6 C       12   6 C                                       1.5254044
    13   6 C       28   6 C                                       1.3935319
    16   6 C       28   6 C                                       1.3928623
    14   6 C       29   6 C                                       1.3902432
    17   6 C       29   6 C                                       1.3960634
    13   6 C       30   6 C                                       1.3886382
    18   6 C       30   6 C                                       1.3973804
    14   6 C       31   6 C                                       1.3914472
    19   6 C       31   6 C                                       1.3934665
    15   6 C       32   6 C                                       1.3942975
    20   6 C       32   6 C                                       1.3950644
    15   6 C       33   6 C                                       1.3908516
    21   6 C       33   6 C                                       1.3963412
    16   6 C       34   6 C                                       1.3851839
    18   6 C       34   6 C                                       1.3802673
    17   6 C       35   6 C                                       1.3808895
    19   6 C       35   6 C                                       1.3848951
    20   6 C       36   6 C                                       1.3828119
    21   6 C       36   6 C                                       1.3801319
     7   6 C       37   6 C                                       1.5313170
     8   6 C       38   6 C                                       1.5305103
     9   6 C       39   6 C                                       1.5350957
    10   6 C       40   6 C                                       1.5265959
    11   6 C       41   6 C                                       1.5335024
    12   6 C       42   6 C                                       1.5332907
    41   6 C       42   6 C                                       1.5382165
    34   6 C       43  35 Br                                      1.9173590 (max)
    35   6 C       44  35 Br                                      1.9168103
    36   6 C       45  35 Br                                      1.9164075
    22   6 C       46   7 N                                       1.2603595
    37   6 C       46   7 N                                       1.4276769
    23   6 C       47   7 N                                       1.2622194
    24   6 C       48   7 N                                       1.2626011
    39   6 C       48   7 N                                       1.4306378
    25   6 C       49   7 N                                       1.2616356
    26   6 C       50   7 N                                       1.2636308
    40   6 C       50   7 N                                       1.4289451
    27   6 C       51   7 N                                       1.2615699
     1   6 C       52   1 H                                       1.0919703
     1   6 C       53   1 H                                       1.0929129
     2   6 C       54   1 H                                       1.0907974
     2   6 C       55   1 H                                       1.0917394
     3   6 C       56   1 H                                       1.0909182
     3   6 C       57   1 H                                       1.0907717
     4   6 C       58   1 H                                       1.0913683
     4   6 C       59   1 H                                       1.0911857
     5   6 C       60   1 H                                       1.0916136
     5   6 C       61   1 H                                       1.0923977
     6   6 C       62   1 H                                       1.0915635
     6   6 C       63   1 H                                       1.0924274
     7   6 C       64   1 H                                       1.0927113
     7   6 C       65   1 H                                       1.0913508
     8   6 C       66   1 H                                       1.0921860
     8   6 C       67   1 H                                       1.0927873
     9   6 C       68   1 H                                       1.0911351
     9   6 C       69   1 H                                       1.0905421
    10   6 C       70   1 H                                       1.0904765
    10   6 C       71   1 H                                       1.0911975
    11   6 C       72   1 H                                       1.0923845
    11   6 C       73   1 H                                       1.0918764
    12   6 C       74   1 H                                       1.0916294
    12   6 C       75   1 H                                       1.0923644
    13   6 C       76   1 H                                       1.0785845
    14   6 C       77   1 H                                       1.0785458
    15   6 C       78   1 H                                       1.0787770
    16   6 C       79   1 H                                       1.0796097
    17   6 C       80   1 H                                       1.0778162 (min)
    18   6 C       81   1 H                                       1.0779952
    19   6 C       82   1 H                                       1.0794952
    20   6 C       83   1 H                                       1.0796714
    21   6 C       84   1 H                                       1.0780182
    22   6 C       85   1 H                                       1.0953228
    23   6 C       86   1 H                                       1.1016554
    24   6 C       87   1 H                                       1.1003177
    25   6 C       88   1 H                                       1.0997714
    26   6 C       89   1 H                                       1.1005105
    27   6 C       90   1 H                                       1.1002698
    37   6 C       91   1 H                                       1.1022532
    38   6 C       92   1 H                                       1.1070992
    39   6 C       93   1 H                                       1.1043948
    40   6 C       94   1 H                                       1.1033626
    41   6 C       95   1 H                                       1.1024846
    42   6 C       96   1 H                                       1.1036905

 * 4 distinct bonds (by element types)

   Z      Z             #   av. dist./Å        max./Å        min./Å
   1 H    6 C          45     1.0917767     1.1070992     1.0778162
   6 C    6 C          34     1.4553582     1.5382165     1.3801319
   6 C    7 N           9     1.3176973     1.4306378     1.2603595
   6 C   35 Br          3     1.9168590     1.9173590     1.9164075


optimized geometry written to: xtbopt.xyz


           -------------------------------------------------
          | TOTAL ENERGY             -142.726921706371 Eh   |
          | GRADIENT NORM               0.000274020297 Eh/α |
          | HOMO-LUMO GAP               2.225276602605 eV   |
           -------------------------------------------------

------------------------------------------------------------------------
 * finished run on 2022/04/01 at 14:31:08.705     
------------------------------------------------------------------------
 total:
 * wall-time:     0 d,  0 h,  0 min, 38.211 sec
 *  cpu-time:     0 d,  0 h, 22 min, 49.610 sec
 * ratio c/w:    35.843 speedup
 SCF:
 * wall-time:     0 d,  0 h,  0 min,  0.687 sec
 *  cpu-time:     0 d,  0 h,  0 min, 24.733 sec
 * ratio c/w:    35.985 speedup
 ANC optimizer:
 * wall-time:     0 d,  0 h,  0 min, 37.455 sec
 *  cpu-time:     0 d,  0 h, 22 min, 22.417 sec
 * ratio c/w:    35.841 speedup

