142
 energy: -211.125121115337 gnorm: 0.000265592099 xtb: 6.6.0 (27203a8)
C           -1.68642412152060       -7.12810214449193        5.01312603742091
C           -1.23652326063921       -6.47186090984751        6.31419051987155
C           -3.82595633024108       -4.50607282054089       -6.72121576968123
C           -2.47050676087845       -4.98467389677139       -7.23044808262570
C           -1.13254554213892        6.23358251355769        6.67227584442082
C           -2.28851494333038        6.56925113470956        5.73624512237557
C            4.71335841057812        5.39441611473894       -5.73594421356303
C            4.39691419724772        6.35333091365506       -4.59322794488138
C           -2.30161760594567       -6.09153033338874        4.08034866445724
C           -0.24515040158919       -5.35036361076773        6.02758589838372
C           -3.79366020347054       -4.33588132766927       -5.20696584733206
C           -1.37559840798264       -4.00671349135001       -6.82118929915073
C           -0.72457356019326        4.77455623181682        6.50734684319933
C           -1.90171211991255        6.27650465621782        4.29176498238108
C            4.68382151712954        3.95316231426186       -5.24149661420762
C            3.03972835749075        6.02210893537294       -3.98441224816558
C           -2.42368328906276       -3.08732092392766       -0.50801887435992
C            0.53665201748071        0.28547981291751        4.81170428752442
C            1.59106442225684       -0.86598307035361       -4.30089072216245
C           -0.20949008238490        4.10337432566465        0.07810347223403
C           -3.04460438880939       -1.85639030556413        1.46564915092894
C            2.17935007417632       -1.41208499647384        4.34325248534045
C           -3.61253288621620       -1.00430610047206       -0.72236403987277
C            2.75933892759556        0.92248736812269        4.14045965001273
C            2.72707020925904       -2.60021835630763       -3.07570974643237
C           -2.46755850600531        3.37201817136697       -0.33472301691681
C            3.65955960275629       -0.37478384366335       -3.16553497195851
C           -0.88583365727674        3.50408931560739       -2.15538319460246
C           -1.77289932617633       -3.95334798895844        1.71924507101450
C           -0.10304874023580       -2.09224887406883        5.00303927091639
C           -3.01134407879934       -2.22805077385825       -2.76442135192202
C            1.11222554864009        2.68984852364292        4.60554323053330
C            0.61609434077522       -3.14831965182780       -4.21326942120979
C           -1.83824900389005        3.99624329511029        1.95548999276596
C            2.53215786564812        1.41447379775333       -4.44677896919690
C            1.44178140112987        4.22475398363807       -1.76271165662975
C           -2.42799781698936       -2.96197988441559        0.87608550260917
C            0.88184512251995       -1.05744947828626        4.71987919323582
C           -3.01618475270069       -2.11706419937363       -1.31288997402970
C            1.46727873250155        1.28069731969807        4.51976357738789
C            1.65162911618383       -2.18719402798151       -3.86096349772820
C           -1.49055576138647        3.82498090229566        0.55085565404376
C            2.58766039157642        0.04193976388314       -3.96025861117634
C            0.09896368493178        3.94666603858253       -1.26876162529103
C           -3.61671096032685       -0.90024967440119        0.65559936654163
C            3.08948737615217       -0.41719206279085        4.05899537942690
C            3.71034811411808       -1.68593781902185       -2.74051759332642
C           -2.14445680667647        3.21985039753379       -1.67058777576457
C           -1.30190503722216       -4.96751991444940        3.77717441737258
C           -0.85797796168728       -4.30212386184083        5.09435494753285
C           -2.70070634669350       -3.34505354510435       -4.78888760591972
C           -1.33168434721942       -3.83739815105558       -5.29909310021259
C           -0.33028273024559        4.47093478768955        5.05721785633052
C           -1.50365953220283        4.80475012233177        4.11735790902667
C            3.32425277291002        3.60777384205117       -4.62671120077181
C            3.00666814821797        4.57710745167434       -3.47022558629925
Br          -4.40868134335687        0.63226794080364        1.46654184362465
Br           4.85749725503396       -0.90143018095503        3.51751088687787
Br           5.17923742438745       -2.26452709883168       -1.65336448440192
Br          -3.47607059533946        2.56450934315512       -2.87218371064410
N           -1.94810557190729       -3.97632221410979        2.96916008482460
N            0.13531668059372       -3.31467451027887        4.79790436299267
N           -2.65974655732034       -3.28496274695345       -3.35813051151664
N           -0.03831193704891        3.07340408582822        4.95467385130919
N           -0.34516896064257       -2.85304081980346       -4.97494860256635
N           -1.08457952149808        4.61020170507550        2.76097440616867
N            3.38832137140469        2.27638209603316       -4.10492931698819
N            1.68636861888493        4.28943386121799       -2.99886431977676
H           -0.82773442272422       -7.59336545749552        4.52385682923643
H           -2.42051301973859       -7.90861819831496        5.22140918176334
H           -0.76902209550639       -7.21288510222297        6.96481591202531
H           -2.10557773575161       -6.06472042965592        6.83591742006978
H           -4.07446662506555       -3.55076700959087       -7.18869370892395
H           -4.60233022076592       -5.22511130224548       -6.98869448564096
H           -2.25234459889527       -5.97067380243468       -6.81392431325997
H           -2.48896765374580       -5.07447169808718       -8.31800290362041
H           -0.28052818786448        6.87822300382588        6.44487170434302
H           -1.42486725163074        6.41359004370293        7.70831379253772
H           -2.55611845796002        7.62291435906056        5.83336673632465
H           -3.16206175772987        5.97204729167947        6.00646955943165
H            5.69907820187334        5.61610734752437       -6.14861651574567
H            3.97717916042965        5.52159560340453       -6.53284963638589
H            4.38863002805714        7.38212699614152       -4.95787010567418
H            5.16965229884454        6.27288187361454       -3.82541949263771
H           -2.60274278479874       -6.55461555037487        3.13766816941318
H           -3.18978573060574       -5.65148310408293        4.53808231453459
H            0.05611452889089       -4.86065748850911        6.95583838516684
H            0.65225514009273       -5.75036717839530        5.55256579971258
H           -3.59507899105506       -5.29366270858199       -4.72258247514993
H           -4.75534630197402       -3.96744227153964       -4.84329968746174
H           -1.55488405256318       -3.02849174673778       -7.27035686059034
H           -0.40043117309433       -4.36039814556629       -7.16274436703657
H           -1.55195912579139        4.11777970357170        6.78105532132768
H            0.12132701945134        4.53858846237507        7.15662400845915
H           -1.05752136837849        6.90084265420520        3.99292234627230
H           -2.73555151980382        6.49346292949973        3.62056688020817
H            5.45232231064217        3.79836810810747       -4.48218936644874
H            4.88096897192669        3.26312520949125       -6.06453270141878
H            2.25193774536975        6.14107109588951       -4.73067266601502
H            2.81887154996293        6.69340773872640       -3.15135034656567
H           -1.96006847666299       -3.93503633145016       -0.98679281090980
H           -0.45862994266369        0.58707092453984        5.09897594981423
H            0.75269471682587       -0.56931114802946       -4.91109100046030
H            0.53218400346990        4.44932629202201        0.78083667075461
H           -3.05024837975437       -1.77241251344594        2.54090599955414
H            2.43620907152505       -2.45695609698193        4.27650868072195
H           -4.06357981218624       -0.23872017141755       -1.33608213529678
H            3.49164486625024        1.68070230914470        3.90752372701809
H            2.79576356931161       -3.62211995017543       -2.73493438677176
H           -3.46147346330055        3.14931281489153        0.02211892913799
H            4.42629620133648        0.33805908257937       -2.90823215644616
H           -0.63577498180108        3.39060244552636       -3.19759324679761
H           -1.11977471948400       -4.66870632557346        1.19880446090777
H           -1.06584433001834       -1.73997493691709        5.40129726957607
H           -3.34505757506019       -1.33392451621463       -3.31030115628887
H            1.91384850739408        3.40096194849448        4.35441127661750
H            0.72998310648069       -4.15315454064372       -3.77896207163307
H           -2.80567887485645        3.57280031048472        2.25929311533598
H            1.70843611843704        1.64287286826896       -5.13780083617986
H            2.21524117650801        4.37259197236648       -0.99557479410862
H           -0.41765288822496       -5.39120515314056        3.27158393457954
H           -1.75190870927503       -3.85122732102075        5.56127785110570
H           -2.90469182423661       -2.35488883786812       -5.23239020926396
H           -1.11486935652805       -4.80667675411826       -4.81537176977284
H            0.53493041139903        5.09138883038150        4.76233898949106
H           -2.35913925028899        4.15709263117446        4.37441415991879
H            2.52437980402594        3.71150239272420       -5.38104327104083
H            3.76313871227550        4.44896930934654       -2.67693909676885
C            0.92236083247601       -1.46333238418053       -0.33676217856743
C            1.23083601656428       -1.44341277237571        1.15906950388497
O           -0.34523562401563       -0.88715376719993       -0.59770028695827
C           -0.40456970648836        0.43226506159643       -0.09010373209658
C           -0.10035288815781        0.44687663331265        1.40676723408804
O            1.17343661787050       -0.11627241244545        1.65377869249640
H            0.87547915112370       -2.48283291263709       -0.71625949569791
H            0.50690902568759       -2.06799637594641        1.70218818746340
H            0.32154922384392        1.06553382280009       -0.61965151688121
H           -0.86346213274667       -0.13376046044072        1.94381619622282
H            2.24272322266456       -1.79965516438510        1.34840373938403
H           -1.41398081980766        0.79035866963325       -0.28562867178810
H           -0.07192491292959        1.46610540127353        1.79183018195137
H            1.69496248857710       -0.89744155915270       -0.87557091588816
