      -----------------------------------------------------------      
     |                   =====================                   |     
     |                           x T B                           |     
     |                   =====================                   |     
     |                         S. Grimme                         |     
     |          Mulliken Center for Theoretical Chemistry        |     
     |                    University of Bonn                     |     
      -----------------------------------------------------------      

   * xtb version 6.4.1 (23d549d) compiled by 'conda@3c73975816cd' on 2022-01-07

   xtb is free software: you can redistribute it and/or modify it under
   the terms of the GNU Lesser General Public License as published by
   the Free Software Foundation, either version 3 of the License, or
   (at your option) any later version.
   
   xtb is distributed in the hope that it will be useful,
   but WITHOUT ANY WARRANTY; without even the implied warranty of
   MERCHANTABILITY or FITNESS FOR A PARTICULAR PURPOSE.  See the
   GNU Lesser General Public License for more details.
   
   Cite this work as:
   * C. Bannwarth, E. Caldeweyher, S. Ehlert, A. Hansen, P. Pracht,
     J. Seibert, S. Spicher, S. Grimme, WIREs Comput. Mol. Sci., 2020, 11,
     e01493. DOI: 10.1002/wcms.1493
   
   for GFN2-xTB:
   * C. Bannwarth, S. Ehlert and S. Grimme., J. Chem. Theory Comput., 2019,
     15, 1652-1671. DOI: 10.1021/acs.jctc.8b01176
   for GFN1-xTB:
   * S. Grimme, C. Bannwarth, P. Shushkov, J. Chem. Theory Comput., 2017,
     13, 1989-2009. DOI: 10.1021/acs.jctc.7b00118
   for GFN0-xTB:
   * P. Pracht, E. Caldeweyher, S. Ehlert, S. Grimme, ChemRxiv, 2019, preprint.
     DOI: 10.26434/chemrxiv.8326202.v1
   for GFN-FF:
   * S. Spicher and S. Grimme, Angew. Chem. Int. Ed., 2020, 59, 15665-15673.
     DOI: 10.1002/anie.202004239
   
   for DFT-D4:
   * E. Caldeweyher, C. Bannwarth and S. Grimme, J. Chem. Phys., 2017,
     147, 034112. DOI: 10.1063/1.4993215
   * E. Caldeweyher, S. Ehlert, A. Hansen, H. Neugebauer, S. Spicher,
     C. Bannwarth and S. Grimme, J. Chem. Phys., 2019, 150, 154122.
     DOI: 10.1063/1.5090222
   * E. Caldeweyher, J.-M. Mewes, S. Ehlert and S. Grimme, Phys. Chem. Chem. Phys.
     2020, 22, 8499-8512. DOI: 10.1039/D0CP00502A
   
   for sTDA-xTB:
   * S. Grimme and C. Bannwarth, J. Chem. Phys., 2016, 145, 054103.
     DOI: 10.1063/1.4959605
   
   in the mass-spec context:
   * V. Asgeirsson, C. Bauer and S. Grimme, Chem. Sci., 2017, 8, 4879.
     DOI: 10.1039/c7sc00601b
   * J. Koopman and S. Grimme, ACS Omega 2019, 4, 12, 15120-15133.
     DOI: 10.1021/acsomega.9b02011
   
   for metadynamics refer to:
   * S. Grimme, J. Chem. Theory Comput., 2019, 155, 2847-2862
     DOI: 10.1021/acs.jctc.9b00143
   
   for SPH calculations refer to:
   * S. Spicher and S. Grimme, J. Chem. Theory Comput., 2021, 17, 1701-1714
     DOI: 10.1021/acs.jctc.0c01306
   
   with help from (in alphabetical order)
   P. Atkinson, C. Bannwarth, F. Bohle, G. Brandenburg, E. Caldeweyher
   M. Checinski, S. Dohm, S. Ehlert, S. Ehrlich, I. Gerasimov, J. Koopman
   C. Lavigne, S. Lehtola, F. März, M. Müller, F. Musil, H. Neugebauer
   J. Pisarek, C. Plett, P. Pracht, J. Seibert, P. Shushkov, S. Spicher
   M. Stahn, M. Steiner, T. Strunk, J. Stückrath, T. Rose, and J. Unsleber
   
 * started run on 2022/04/01 at 14:49:58.993     

           -------------------------------------------------
          |                Calculation Setup                |
           -------------------------------------------------

          program call               : xtb SSJXIUAHEKJCMH-WDSKDSINSA-N_ETKDG_MMFF.xyz --opt --gfn 2 --alpb chcl3 --cycles 10000
          coordinate file            : SSJXIUAHEKJCMH-WDSKDSINSA-N_ETKDG_MMFF.xyz
          omp threads                :                    36
          number of atoms            :                    22
          number of electrons        :                    48
          charge                     :                     0
          spin                       :                   0.0
          first test random number   :      0.06084705214643

   ID    Z sym.   atoms
    1    6 C      1-6
    2    7 N      7, 8
    3    1 H      9-22

           -------------------------------------------------
          |                 G F N 2 - x T B                 |
           -------------------------------------------------

        Reference                      10.1021/acs.jctc.8b01176
      * Hamiltonian:
        H0-scaling (s, p, d)           1.850000    2.230000    2.230000
        zeta-weighting                 0.500000
      * Dispersion:
        s8                             2.700000
        a1                             0.520000
        a2                             5.000000
        s9                             5.000000
      * Repulsion:
        kExp                           1.500000    1.000000
        rExp                           1.000000
      * Coulomb:
        alpha                          2.000000
        third order                    shell-resolved
        anisotropic                    true
        a3                             3.000000
        a5                             4.000000
        cn-shift                       1.200000
        cn-exp                         4.000000
        max-rad                        5.000000

      * Solvation model:               ALPB
        Solvent                        chcl3
        Parameter file                 internal GFN2-xTB/ALPB
        Dielectric constant                4.8100E+00
        Reference state                gsolv [1 M gas/solution]
        Free energy shift                  3.8910E-03 Eh       2.4417E+00 kcal/mol
        Temperature                        2.9815E+02 K
        Density                            1.4900E+00 kg/L
        Solvent mass                       1.1938E+02 g/mol
        Interaction kernel             P16
        Born radius scaling (c1)           1.3274E+00
        Born radii integrator          GBOBC
        Born offset                        0.0000E+00 a0       0.0000E+00 AA
        H-bond correction              false
        Ion screening                  false
        Surface tension                    1.0000E-05 Eh       1.5569E+01 dyn/cm
        Grid points                               230 per atom

          ...................................................
          :                      SETUP                      :
          :.................................................:
          :  # basis functions                  46          :
          :  # atomic orbitals                  46          :
          :  # shells                           30          :
          :  # electrons                        48          :
          :  max. iterations                   250          :
          :  Hamiltonian                  GFN2-xTB          :
          :  restarted?                      false          :
          :  GBSA solvation                   true          :
          :  PC potential                    false          :
          :  electronic temp.          300.0000000     K    :
          :  accuracy                    1.0000000          :
          :  -> integral cutoff          0.2500000E+02      :
          :  -> integral neglect         0.1000000E-07      :
          :  -> SCF convergence          0.1000000E-05 Eh   :
          :  -> wf. convergence          0.1000000E-03 e    :
          :  Broyden damping             0.4000000          :
          ...................................................

 iter      E             dE          RMSdq      gap      omega  full diag
   1    -26.1290556 -0.261291E+02  0.280E+00   10.30       0.0  T
   2    -26.1592144 -0.301588E-01  0.156E+00   10.35       1.0  T
   3    -26.1605721 -0.135769E-02  0.614E-01   10.34       1.0  T
   4    -26.1607320 -0.159919E-03  0.110E-01   10.32       1.0  T
   5    -26.1607825 -0.504727E-04  0.455E-02   10.30       1.0  T
   6    -26.1607852 -0.268124E-05  0.190E-02   10.30       1.1  T
   7    -26.1607854 -0.253367E-06  0.290E-03   10.30       7.4  T
   8    -26.1607855 -0.204400E-07  0.162E-03   10.30      13.1  T
   9    -26.1607855 -0.230175E-08  0.207E-04   10.30     103.0  T
  10    -26.1607855 -0.282476E-10  0.568E-05   10.30     375.6  T

   *** convergence criteria satisfied after 10 iterations ***

         #    Occupation            Energy/Eh            Energy/eV
      -------------------------------------------------------------
         1        2.0000           -0.6416330             -17.4597
       ...           ...                  ...                  ...
        18        2.0000           -0.4526083             -12.3161
        19        2.0000           -0.4428245             -12.0499
        20        2.0000           -0.4231453             -11.5144
        21        2.0000           -0.4218956             -11.4804
        22        2.0000           -0.4168809             -11.3439
        23        2.0000           -0.3740275             -10.1778
        24        2.0000           -0.3664556              -9.9718 (HOMO)
        25                          0.0119867               0.3262 (LUMO)
        26                          0.0250385               0.6813
        27                          0.0698885               1.9018
        28                          0.0775356               2.1099
        29                          0.0961162               2.6155
       ...                                ...                  ...
        46                          0.2923236               7.9545
      -------------------------------------------------------------
                  HL-Gap            0.3784423 Eh           10.2979 eV
             Fermi-level           -0.1772344 Eh           -4.8228 eV

 SCC (total)                   0 d,  0 h,  0 min,  0.577 sec
 SCC setup                      ...        0 min,  0.020 sec (  3.397%)
 Dispersion                     ...        0 min,  0.008 sec (  1.301%)
 classical contributions        ...        0 min,  0.008 sec (  1.355%)
 integral evaluation            ...        0 min,  0.012 sec (  2.097%)
 iterations                     ...        0 min,  0.442 sec ( 76.537%)
 molecular gradient             ...        0 min,  0.088 sec ( 15.280%)
 printout                       ...        0 min,  0.000 sec (  0.025%)

         :::::::::::::::::::::::::::::::::::::::::::::::::::::
         ::                     SUMMARY                     ::
         :::::::::::::::::::::::::::::::::::::::::::::::::::::
         :: total energy             -25.834091332663 Eh    ::
         :: total w/o Gsasa/hb       -25.825570640781 Eh    ::
         :: gradient norm              0.021155818592 Eh/a0 ::
         :: HOMO-LUMO gap             10.297938611270 eV    ::
         ::.................................................::
         :: SCC energy               -26.160785461071 Eh    ::
         :: -> isotropic ES            0.027964368271 Eh    ::
         :: -> anisotropic ES          0.006551321054 Eh    ::
         :: -> anisotropic XC          0.019949589740 Eh    ::
         :: -> dispersion             -0.015749466758 Eh    ::
         :: -> Gsolv                  -0.011352283295 Eh    ::
         ::    -> Gelec               -0.002831591413 Eh    ::
         ::    -> Gsasa               -0.012411711126 Eh    ::
         ::    -> Ghb                  0.000000000000 Eh    ::
         ::    -> Gshift               0.003891019244 Eh    ::
         :: repulsion energy           0.326600914883 Eh    ::
         :: add. restraining           0.000000000000 Eh    ::
         :: total charge               0.000000000000 e     ::
         :::::::::::::::::::::::::::::::::::::::::::::::::::::

      ----------------------------------------------------------- 
     |                   =====================                   |
     |                        A N C O P T                        |
     |                   =====================                   |
     |               Approximate Normal Coordinate               |
     |                Rational Function Optimizer                |
      ----------------------------------------------------------- 

          ...................................................
          :                      SETUP                      :
          :.................................................:
          :   optimization level            normal          :
          :   max. optcycles                 10000          :
          :   ANC micro-cycles                  20          :
          :   degrees of freedom                60          :
          :.................................................:
          :   RF solver                   davidson          :
          :   write xtbopt.log                true          :
          :   linear?                        false          :
          :   energy convergence         0.5000000E-05 Eh   :
          :   grad. convergence          0.1000000E-02 Eh/α :
          :   maximium RF displ.         1.0000000          :
          :   Hlow (freq-cutoff)         0.1000000E-01      :
          :   Hmax (freq-cutoff)         5.0000000          :
          :   S6 in model hess.         20.0000000          :
          ...................................................

generating ANC from model Hessian ...
Using Lindh-Hessian (1995)
 Shifting diagonal of input Hessian by    6.4013897437699427E-003
 Lowest  eigenvalues of input Hessian
    0.000000    0.000000    0.000000    0.000000    0.000000    0.000000
    0.010000    0.012944    0.015093    0.018475    0.020074    0.021552
    0.023232    0.024379    0.027671    0.030025    0.042431    0.043080
 Highest eigenvalues
    1.221914    1.249335    1.294069    1.303931    1.384265    1.384550


........................................................................
.............................. CYCLE    1 ..............................
........................................................................
   1    -26.1607855 -0.261608E+02  0.718E-06   10.30       0.0  T
   2    -26.1607855 -0.355271E-13  0.425E-06   10.30    5019.1  T
   3    -26.1607855 -0.177636E-13  0.411E-07   10.30   51908.8  T
     SCC iter.                  ...        0 min,  0.113 sec
     gradient                   ...        0 min,  0.086 sec
 * total energy  :   -25.8340913 Eh     change       -0.1072920E-10 Eh
   gradient norm :     0.0211558 Eh/α   predicted     0.0000000E+00 (-100.00%)
   displ. norm   :     0.2866715 α      lambda       -0.4449249E-02
   maximum displ.:     0.2364617 α      in ANC's #12, #21, #22, ...

........................................................................
.............................. CYCLE    2 ..............................
........................................................................
   1    -26.1686725 -0.261687E+02  0.184E-01   10.39       0.0  T
   2    -26.1686770 -0.445015E-05  0.107E-01   10.40       1.0  T
   3    -26.1686781 -0.108692E-05  0.689E-03   10.40       3.1  T
   4    -26.1686785 -0.417493E-06  0.319E-03   10.40       6.7  T
   5    -26.1686785 -0.379267E-08  0.379E-04   10.40      56.3  T
   6    -26.1686785 -0.176307E-09  0.160E-04   10.40     132.9  T
     SCC iter.                  ...        0 min,  0.217 sec
     gradient                   ...        0 min,  0.092 sec
 * total energy  :   -25.8367631 Eh     change       -0.2671777E-02 Eh
   gradient norm :     0.0113638 Eh/α   predicted    -0.2407449E-02 (  -9.89%)
   displ. norm   :     0.1521655 α      lambda       -0.7013533E-03
   maximum displ.:     0.0975899 α      in ANC's #12, #1, #3, ...

........................................................................
.............................. CYCLE    3 ..............................
........................................................................
   1    -26.1726446 -0.261726E+02  0.692E-02   10.42       0.0  T
   2    -26.1726459 -0.127933E-05  0.409E-02   10.43       1.0  T
   3    -26.1726459 -0.536096E-07  0.415E-03   10.43       5.1  T
   4    -26.1726461 -0.201894E-06  0.131E-03   10.43      16.2  T
   5    -26.1726461 -0.110096E-08  0.382E-04   10.43      55.8  T
   6    -26.1726461 -0.182684E-09  0.115E-04   10.43     185.2  T
     SCC iter.                  ...        0 min,  0.210 sec
     gradient                   ...        0 min,  0.087 sec
 * total energy  :   -25.8372012 Eh     change       -0.4380831E-03 Eh
   gradient norm :     0.0057738 Eh/α   predicted    -0.3588010E-03 ( -18.10%)
   displ. norm   :     0.1159641 α      lambda       -0.1924111E-03
   maximum displ.:     0.0837586 α      in ANC's #1, #3, #12, ...

........................................................................
.............................. CYCLE    4 ..............................
........................................................................
   1    -26.1741143 -0.261741E+02  0.337E-02   10.45       0.0  T
   2    -26.1741152 -0.914160E-06  0.193E-02   10.45       1.1  T
   3    -26.1741152  0.210427E-08  0.435E-03   10.45       4.9  T
   4    -26.1741153 -0.108071E-06  0.873E-04   10.45      24.4  T
   5    -26.1741153 -0.682352E-09  0.303E-04   10.45      70.3  T
     SCC iter.                  ...        0 min,  0.171 sec
     gradient                   ...        0 min,  0.094 sec
 * total energy  :   -25.8373339 Eh     change       -0.1327162E-03 Eh
   gradient norm :     0.0026968 Eh/α   predicted    -0.9754208E-04 ( -26.50%)
   displ. norm   :     0.1043396 α      lambda       -0.8685602E-04
   maximum displ.:     0.0869996 α      in ANC's #1, #3, #5, ...

........................................................................
.............................. CYCLE    5 ..............................
........................................................................
   1    -26.1745232 -0.261745E+02  0.295E-02   10.46       0.0  T
   2    -26.1745235 -0.312058E-06  0.168E-02   10.46       1.3  T
   3    -26.1745236 -0.313372E-07  0.221E-03   10.46       9.6  T
   4    -26.1745236 -0.271553E-07  0.778E-04   10.46      27.4  T
   5    -26.1745236 -0.515687E-09  0.248E-04   10.46      86.1  T
     SCC iter.                  ...        0 min,  0.229 sec
     gradient                   ...        0 min,  0.093 sec
 * total energy  :   -25.8373961 Eh     change       -0.6223513E-04 Eh
   gradient norm :     0.0019983 Eh/α   predicted    -0.4390118E-04 ( -29.46%)
   displ. norm   :     0.1139460 α      lambda       -0.3987385E-04
   maximum displ.:     0.1010176 α      in ANC's #1, #3, #5, ...

........................................................................
.............................. CYCLE    6 ..............................
........................................................................
   1    -26.1744029 -0.261744E+02  0.297E-02   10.47       0.0  T
   2    -26.1744031 -0.234071E-06  0.170E-02   10.47       1.3  T
   3    -26.1744032 -0.623922E-07  0.151E-03   10.47      14.1  T
   4    -26.1744032 -0.423312E-08  0.739E-04   10.47      28.9  T
   5    -26.1744032 -0.346120E-09  0.185E-04   10.47     115.3  T
     SCC iter.                  ...        0 min,  0.183 sec
     gradient                   ...        0 min,  0.086 sec
 * total energy  :   -25.8374384 Eh     change       -0.4226489E-04 Eh
   gradient norm :     0.0019955 Eh/α   predicted    -0.2005439E-04 ( -52.55%)
   displ. norm   :     0.0650427 α      lambda       -0.1911405E-04
   maximum displ.:     0.0598255 α      in ANC's #1, #7, #5, ...

........................................................................
.............................. CYCLE    7 ..............................
........................................................................
   1    -26.1743412 -0.261743E+02  0.151E-02   10.47       0.0  T
   2    -26.1743412 -0.492161E-07  0.879E-03   10.47       2.4  T
   3    -26.1743412 -0.171428E-07  0.692E-04   10.47      30.8  T
   4    -26.1743412 -0.966676E-09  0.362E-04   10.47      59.0  T
     SCC iter.                  ...        0 min,  0.215 sec
     gradient                   ...        0 min,  0.094 sec
 * total energy  :   -25.8374607 Eh     change       -0.2232190E-04 Eh
   gradient norm :     0.0008835 Eh/α   predicted    -0.9609908E-05 ( -56.95%)
   displ. norm   :     0.0500691 α      lambda       -0.9095988E-05
   maximum displ.:     0.0467263 α      in ANC's #1, #7, #21, ...

........................................................................
.............................. CYCLE    8 ..............................
........................................................................
   1    -26.1743445 -0.261743E+02  0.123E-02   10.46       0.0  T
   2    -26.1743445 -0.345649E-07  0.714E-03   10.46       3.0  T
   3    -26.1743446 -0.963955E-08  0.506E-04   10.46      42.1  T
   4    -26.1743446 -0.108980E-08  0.272E-04   10.46      78.4  T
     SCC iter.                  ...        0 min,  0.239 sec
     gradient                   ...        0 min,  0.096 sec
 * total energy  :   -25.8374708 Eh     change       -0.1005147E-04 Eh
   gradient norm :     0.0003121 Eh/α   predicted    -0.4561221E-05 ( -54.62%)
   displ. norm   :     0.0293884 α      lambda       -0.3189692E-05
   maximum displ.:     0.0284825 α      in ANC's #1, #7, #5, ...

........................................................................
.............................. CYCLE    9 ..............................
........................................................................
   1    -26.1744222 -0.261744E+02  0.672E-03   10.46       0.0  T
   2    -26.1744222 -0.104184E-07  0.383E-03   10.46       5.6  T
   3    -26.1744222 -0.359917E-08  0.270E-04   10.46      78.9  T
   4    -26.1744222 -0.168043E-09  0.146E-04   10.46     145.8  T
     SCC iter.                  ...        0 min,  0.156 sec
     gradient                   ...        0 min,  0.089 sec
 * total energy  :   -25.8374746 Eh     change       -0.3802700E-05 Eh
   gradient norm :     0.0004070 Eh/α   predicted    -0.1622690E-05 ( -57.33%)
   displ. norm   :     0.0201967 α      lambda       -0.1830413E-05
   maximum displ.:     0.0193549 α      in ANC's #1, #5, #12, ...

   *** GEOMETRY OPTIMIZATION CONVERGED AFTER 9 ITERATIONS ***

------------------------------------------------------------------------
 total energy gain   :        -0.0033833 Eh       -2.1230 kcal/mol
 total RMSD          :         0.1557410 a0        0.0824 Å
 total power (kW/mol):        -0.9869697 (step)   -3.0954 (real)
------------------------------------------------------------------------

 ANCopt (total)                0 d,  0 h,  0 min,  2.870 sec
 optimizer setup                ...        0 min,  0.000 sec (  0.003%)
 model hessian                  ...        0 min,  0.016 sec (  0.574%)
 ANC generation                 ...        0 min,  0.001 sec (  0.037%)
 coordinate transformation      ...        0 min,  0.000 sec (  0.004%)
 single point calculation       ...        0 min,  2.822 sec ( 98.354%)
 optimization log               ...        0 min,  0.003 sec (  0.097%)
 hessian update                 ...        0 min,  0.025 sec (  0.873%)
 rational function              ...        0 min,  0.001 sec (  0.036%)

================
 final structure:
================
22
 xtb: 6.4.1 (23d549d)
C         1.94867512648193   -0.13001436289171   -0.02412474008018
C         1.26432223559714   -1.47919932391451    0.16524441301629
C         1.07670319588555    0.98818514219744    0.53569073235049
C        -0.11036473946140   -1.47193493262092   -0.49359852544683
C        -0.30189570507302    1.00447148688314   -0.12599715112757
C        -0.99198360978049   -0.35622215403933    0.06888986179339
N        -1.10995025535680    2.05643347931678    0.49036626476299
N        -2.27210540764201   -0.36247480547698   -0.63869386737050
H         2.12050544802220    0.04327732936106   -1.08899531776595
H         2.91777672440839   -0.12773619863034    0.47869834852221
H         1.15307703710350   -1.68254432014172    1.23286120724894
H         1.87550116380683   -2.27370293799087   -0.26752113354733
H         1.56176425055737    1.95474644601637    0.37822527881635
H         0.93940862994290    0.85455287929665    1.61058681276650
H        -0.60475813578159   -2.43381961952295   -0.33652450724894
H        -0.00999395567453   -1.31971037503587   -1.57011403473569
H        -0.17934086615052    1.15991302546681   -1.21279255557427
H        -1.11914760565188   -0.50915806937924    1.15548782506719
H        -1.96090189717971    2.19187327588959   -0.04594899710800
H        -0.60019366381329    2.93421914856337    0.46213979673458
H        -2.92577642438340    0.25445696799025   -0.16734447781669
H        -2.67132054585718   -1.29561108133707   -0.60653223325695

 Bond Distances (Angstroems)
 ---------------------------
C1-C2=1.5246         C1-C3=1.5245         C1-H9=1.0925         C1-H10=1.0918        C2-C1=1.5246         C2-C4=1.5244         
C2-H11=1.0925        C2-H12=1.0918        C3-C1=1.5245         C3-C5=1.5293         C3-H13=1.0928        C3-H14=1.0918        
C4-C2=1.5244         C4-C6=1.5292         C4-H15=1.0928        C4-H16=1.0918        C5-C3=1.5293         C5-C6=1.5381         
C5-N7=1.4627         C5-H17=1.1047        C6-C4=1.5292         C6-C5=1.5381         C6-N8=1.4627         C6-H18=1.1047        
N7-C5=1.4627         N7-H19=1.0149        N7-H20=1.0155        N8-C6=1.4627         N8-H21=1.0149        N8-H22=1.0155        
H9-C1=1.0925         H10-C1=1.0918        H11-C2=1.0925        H12-C2=1.0918        H13-C3=1.0928        H14-C3=1.0918        
H15-C4=1.0928        H16-C4=1.0918        H17-C5=1.1047        H18-C6=1.1047        H19-N7=1.0149        H20-N7=1.0155        
H21-N8=1.0149        H22-N8=1.0155        
 C  H  Rav=1.0947 sigma=0.0050  Rmin=1.0918  Rmax=1.1047    10
 C  C  Rav=1.5284 sigma=0.0048  Rmin=1.5244  Rmax=1.5381     6
 N  H  Rav=1.0152 sigma=0.0003  Rmin=1.0149  Rmax=1.0155     4
 N  C  Rav=1.4627 sigma=0.0000  Rmin=1.4627  Rmax=1.4627     2

 selected bond angles (degree)
 --------------------
C3-C1-C2=110.29                H9-C1-C2=109.39                H9-C1-C3=109.36                H10-C1-C2=110.06               
H10-C1-C3=109.70               H10-C1-H9=108.00               C4-C2-C1=110.30                H11-C2-C1=109.38               
H11-C2-C4=109.35               H12-C2-C1=110.09               H12-C2-C4=109.69               H12-C2-H11=107.99              
C5-C3-C1=111.38                H13-C3-C1=110.00               H13-C3-C5=109.17               H14-C3-C1=110.10               
H14-C3-C5=108.30               H14-C3-H13=107.81              C6-C4-C2=111.37                H15-C4-C2=109.98               
H15-C4-C6=109.18               H16-C4-C2=110.11               H16-C4-C6=108.30               H16-C4-H15=107.82              
C6-C5-C3=109.89                N7-C5-C3=108.87                N7-C5-C6=109.57                H17-C5-C3=109.10               
H17-C5-C6=107.39               H17-C5-N7=112.00               C5-C6-C4=109.89                N8-C6-C4=108.88                
N8-C6-C5=109.58                H18-C6-C4=109.10               H18-C6-C5=107.38               H18-C6-N8=111.99               
H19-N7-C5=109.66               H20-N7-C5=109.43               H20-N7-H19=106.91              H21-N8-C6=109.66               
H22-N8-C6=109.43               H22-N8-H21=106.90              

 selected dihedral angles (degree)
 ---------------------------------
C4-C2-C1-C3= 56.87            C4-C2-C1-H9=296.54            C4-C2-C1-H10=178.04           H11-C2-C1-C3=296.56           
H11-C2-C1-H9=176.24           H11-C2-C1-H10= 57.73          H12-C2-C1-C3=178.05           H12-C2-C1-H9= 57.73           
H12-C2-C1-H10=299.22          C5-C3-C1-C2=302.39            C5-C3-C1-H9= 62.73            C5-C3-C1-H10=181.00           
H13-C3-C1-C2=181.21           H13-C3-C1-H9=301.55           H13-C3-C1-H10= 59.82          H14-C3-C1-C2= 62.54           
H14-C3-C1-H9=182.88           H14-C3-C1-H10=301.15          C6-C4-C2-C1=302.37            C6-C4-C2-H11= 62.69           
C6-C4-C2-H12=180.95           H15-C4-C2-C1=181.20           H15-C4-C2-H11=301.52          H15-C4-C2-H12= 59.78          
H16-C4-C2-C1= 62.52           H16-C4-C2-H11=182.84          H16-C4-C2-H12=301.10          C6-C5-C3-C1= 57.56            
C6-C5-C3-H13=179.21           C6-C5-C3-H14=296.35           N7-C5-C3-C1=177.56            N7-C5-C3-H13=299.22           
N7-C5-C3-H14= 56.35           H17-C5-C3-C1=300.06           H17-C5-C3-H13= 61.72          H17-C5-C3-H14=178.85          
C5-C6-C4-C2= 57.57            C5-C6-C4-H15=179.21           C5-C6-C4-H16=296.35           N8-C6-C4-C2=177.60            
N8-C6-C4-H15=299.23           N8-C6-C4-H16= 56.38           H18-C6-C4-C2=300.09           H18-C6-C4-H15= 61.73          
H18-C6-C4-H16=178.87          C4-C6-C5-C3=303.19            C4-C6-C5-N7=183.62            C4-C6-C5-H17= 61.74           
N8-C6-C5-C3=183.60            N8-C6-C5-N7= 64.02            N8-C6-C5-H17=302.15           H18-C6-C5-C3= 61.74           
H18-C6-C5-N7=302.16           H18-C6-C5-H17=180.29          H19-N7-C5-C3=169.83           H19-N7-C5-C6=290.03           
H19-N7-C5-H17= 49.10          H20-N7-C5-C3= 52.85           H20-N7-C5-C6=173.06           H20-N7-C5-H17=292.12          
H21-N8-C6-C4=169.73           H21-N8-C6-C5=289.95           H21-N8-C6-H18= 49.00          H22-N8-C6-C4= 52.78           
H22-N8-C6-C5=172.99           H22-N8-C6-H18=292.05          
           -------------------------------------------------
          |                Final Singlepoint                |
           -------------------------------------------------

          ...................................................
          :                      SETUP                      :
          :.................................................:
          :  # basis functions                  46          :
          :  # atomic orbitals                  46          :
          :  # shells                           30          :
          :  # electrons                        48          :
          :  max. iterations                   250          :
          :  Hamiltonian                  GFN2-xTB          :
          :  restarted?                      false          :
          :  GBSA solvation                   true          :
          :  PC potential                    false          :
          :  electronic temp.          300.0000000     K    :
          :  accuracy                    1.0000000          :
          :  -> integral cutoff          0.2500000E+02      :
          :  -> integral neglect         0.1000000E-07      :
          :  -> SCF convergence          0.1000000E-05 Eh   :
          :  -> wf. convergence          0.1000000E-03 e    :
          :  Broyden damping             0.4000000          :
          ...................................................

 iter      E             dE          RMSdq      gap      omega  full diag
   1    -26.1744222 -0.261744E+02  0.258E-05   10.46       0.0  T
   2    -26.1744222 -0.191847E-11  0.142E-05   10.46    1502.2  T
   3    -26.1744222 -0.113687E-12  0.659E-06   10.46    3233.4  T

   *** convergence criteria satisfied after 3 iterations ***

         #    Occupation            Energy/Eh            Energy/eV
      -------------------------------------------------------------
         1        2.0000           -0.6425887             -17.4857
       ...           ...                  ...                  ...
        18        2.0000           -0.4493455             -12.2273
        19        2.0000           -0.4423379             -12.0366
        20        2.0000           -0.4250706             -11.5668
        21        2.0000           -0.4199523             -11.4275
        22        2.0000           -0.4153212             -11.3015
        23        2.0000           -0.3726944             -10.1415
        24        2.0000           -0.3653896              -9.9428 (HOMO)
        25                          0.0190387               0.5181 (LUMO)
        26                          0.0413482               1.1251
        27                          0.0765642               2.0834
        28                          0.0848925               2.3100
        29                          0.0993434               2.7033
       ...                                ...                  ...
        46                          0.3048563               8.2956
      -------------------------------------------------------------
                  HL-Gap            0.3844283 Eh           10.4608 eV
             Fermi-level           -0.1731754 Eh           -4.7123 eV

 SCC (total)                   0 d,  0 h,  0 min,  0.251 sec
 SCC setup                      ...        0 min,  0.007 sec (  2.820%)
 Dispersion                     ...        0 min,  0.007 sec (  2.753%)
 classical contributions        ...        0 min,  0.004 sec (  1.589%)
 integral evaluation            ...        0 min,  0.011 sec (  4.391%)
 iterations                     ...        0 min,  0.125 sec ( 49.782%)
 molecular gradient             ...        0 min,  0.097 sec ( 38.596%)
 printout                       ...        0 min,  0.000 sec (  0.053%)

         :::::::::::::::::::::::::::::::::::::::::::::::::::::
         ::                     SUMMARY                     ::
         :::::::::::::::::::::::::::::::::::::::::::::::::::::
         :: total energy             -25.837474584964 Eh    ::
         :: total w/o Gsasa/hb       -25.829150767165 Eh    ::
         :: gradient norm              0.000407235957 Eh/a0 ::
         :: HOMO-LUMO gap             10.460825894850 eV    ::
         ::.................................................::
         :: SCC energy               -26.174422185808 Eh    ::
         :: -> isotropic ES            0.027690389683 Eh    ::
         :: -> anisotropic ES          0.006367439228 Eh    ::
         :: -> anisotropic XC          0.019544552365 Eh    ::
         :: -> dispersion             -0.015898630681 Eh    ::
         :: -> Gsolv                  -0.011082532387 Eh    ::
         ::    -> Gelec               -0.002758714588 Eh    ::
         ::    -> Gsasa               -0.012214837042 Eh    ::
         ::    -> Ghb                  0.000000000000 Eh    ::
         ::    -> Gshift               0.003891019244 Eh    ::
         :: repulsion energy           0.336857429577 Eh    ::
         :: add. restraining           0.000000000000 Eh    ::
         :: total charge               0.000000000000 e     ::
         :::::::::::::::::::::::::::::::::::::::::::::::::::::

           -------------------------------------------------
          |                Property Printout                |
           -------------------------------------------------

    * Orbital Energies and Occupations

         #    Occupation            Energy/Eh            Energy/eV
      -------------------------------------------------------------
         1        2.0000           -0.6425887             -17.4857
       ...           ...                  ...                  ...
        12        2.0000           -0.5051368             -13.7455
        13        2.0000           -0.5044105             -13.7257
        14        2.0000           -0.4854011             -13.2084
        15        2.0000           -0.4746080             -12.9147
        16        2.0000           -0.4666756             -12.6989
        17        2.0000           -0.4589791             -12.4895
        18        2.0000           -0.4493455             -12.2273
        19        2.0000           -0.4423379             -12.0366
        20        2.0000           -0.4250706             -11.5668
        21        2.0000           -0.4199523             -11.4275
        22        2.0000           -0.4153212             -11.3015
        23        2.0000           -0.3726944             -10.1415
        24        2.0000           -0.3653896              -9.9428 (HOMO)
        25                          0.0190387               0.5181 (LUMO)
        26                          0.0413482               1.1251
        27                          0.0765642               2.0834
        28                          0.0848925               2.3100
        29                          0.0993434               2.7033
        30                          0.1068665               2.9080
        31                          0.1188107               3.2330
        32                          0.1210347               3.2935
        33                          0.1497979               4.0762
        34                          0.1764639               4.8018
        35                          0.1825405               4.9672
       ...                                ...                  ...
        46                          0.3048563               8.2956
      -------------------------------------------------------------
                  HL-Gap            0.3844283 Eh           10.4608 eV
             Fermi-level           -0.1731754 Eh           -4.7123 eV

     #   Z          covCN         q      C6AA      α(0)
     1   6 C        3.805    -0.061    21.673     6.627
     2   6 C        3.805    -0.061    21.673     6.627
     3   6 C        3.809    -0.067    21.775     6.642
     4   6 C        3.809    -0.067    21.775     6.642
     5   6 C        3.786     0.052    19.721     6.325
     6   6 C        3.787     0.052    19.721     6.325
     7   7 N        2.633    -0.373    29.628     8.084
     8   7 N        2.633    -0.373    29.628     8.084
     9   1 H        0.924     0.036     2.503     2.474
    10   1 H        0.924     0.037     2.491     2.468
    11   1 H        0.924     0.036     2.503     2.474
    12   1 H        0.924     0.037     2.491     2.468
    13   1 H        0.924     0.032     2.551     2.498
    14   1 H        0.924     0.044     2.401     2.423
    15   1 H        0.924     0.032     2.551     2.498
    16   1 H        0.924     0.044     2.401     2.423
    17   1 H        0.922     0.009     2.911     2.668
    18   1 H        0.923     0.009     2.911     2.668
    19   1 H        0.860     0.147     1.423     1.869
    20   1 H        0.860     0.145     1.439     1.879
    21   1 H        0.860     0.147     1.423     1.869
    22   1 H        0.860     0.145     1.438     1.879

 Mol. C6AA /au·bohr⁶  :       3496.566122
 Mol. C8AA /au·bohr⁸  :      73525.487807
 Mol. α(0) /au        :         87.916033


Wiberg/Mayer (AO) data.
largest (>0.10) Wiberg bond orders for each atom

 ---------------------------------------------------------------------------
     #   Z sym  total        # sym  WBO       # sym  WBO       # sym  WBO
 ---------------------------------------------------------------------------
     1   6 C    3.998 --     2 C    1.009     3 C    1.008     9 H    0.977
                            10 H    0.977
     2   6 C    3.998 --     1 C    1.009     4 C    1.008    11 H    0.977
                            12 H    0.977
     3   6 C    3.997 --     1 C    1.008     5 C    0.995    14 H    0.976
                            13 H    0.975
     4   6 C    3.997 --     2 C    1.008     6 C    0.995    16 H    0.976
                            15 H    0.975
     5   6 C    3.983 --     7 N    1.008     3 C    0.995     6 C    0.977
                            17 H    0.961
     6   6 C    3.983 --     8 N    1.008     4 C    0.995     5 C    0.977
                            18 H    0.961
     7   7 N    2.989 --     5 C    1.008    20 H    0.963    19 H    0.962
     8   7 N    2.989 --     6 C    1.008    22 H    0.963    21 H    0.962
     9   1 H    0.999 --     1 C    0.977
    10   1 H    0.998 --     1 C    0.977
    11   1 H    0.999 --     2 C    0.977
    12   1 H    0.998 --     2 C    0.977
    13   1 H    0.999 --     3 C    0.975
    14   1 H    0.998 --     3 C    0.976
    15   1 H    0.999 --     4 C    0.975
    16   1 H    0.998 --     4 C    0.976
    17   1 H    1.000 --     5 C    0.961
    18   1 H    1.000 --     6 C    0.961
    19   1 H    0.978 --     7 N    0.962
    20   1 H    0.979 --     7 N    0.963
    21   1 H    0.978 --     8 N    0.962
    22   1 H    0.979 --     8 N    0.963
 ---------------------------------------------------------------------------

Topologies differ in total number of bonds
Writing topology from bond orders to xtbtopo.mol

molecular dipole:
                 x           y           z       tot (Debye)
 q only:        0.183      -0.092       0.008
   full:        0.078      -0.040       0.003       0.222
molecular quadrupole (traceless):
                xx          xy          yy          xz          yz          zz
 q only:        1.302       0.259       1.623      -0.152      -0.660      -2.925
  q+dip:        0.851       1.623       2.935      -1.436      -3.193      -3.786
   full:        1.683       1.348       3.412      -1.093      -2.708      -5.094

           -------------------------------------------------
          |                Geometry Summary                 |
           -------------------------------------------------

      molecular mass/u    :      114.1889923
   center of mass at/Å    :       -0.1069670       0.0536258      -0.0047340
  moments of inertia/u·Å² :        0.1856019E+03   0.2579937E+03   0.4102059E+03
rotational constants/cm⁻¹ :        0.9082684E-01   0.6534127E-01   0.4109553E-01

 * 22 selected distances

     #   Z          #   Z                                           value/Å
     1   6 C        2   6 C                                       1.5246310
     1   6 C        3   6 C                                       1.5244994
     2   6 C        4   6 C                                       1.5244314
     3   6 C        5   6 C                                       1.5292583
     4   6 C        6   6 C                                       1.5292024
     5   6 C        6   6 C                                       1.5380798 (max)
     5   6 C        7   7 N                                       1.4626962
     6   6 C        8   7 N                                       1.4626776
     1   6 C        9   1 H                                       1.0924766
     1   6 C       10   1 H                                       1.0917848
     2   6 C       11   1 H                                       1.0924881
     2   6 C       12   1 H                                       1.0918158
     3   6 C       13   1 H                                       1.0928496
     3   6 C       14   1 H                                       1.0918374
     4   6 C       15   1 H                                       1.0928491
     4   6 C       16   1 H                                       1.0918481
     5   6 C       17   1 H                                       1.1046746
     6   6 C       18   1 H                                       1.1046516
     7   7 N       19   1 H                                       1.0149368
     7   7 N       20   1 H                                       1.0154586
     8   7 N       21   1 H                                       1.0149191 (min)
     8   7 N       22   1 H                                       1.0154558

 * 4 distinct bonds (by element types)

   Z      Z             #   av. dist./Å        max./Å        min./Å
   1 H    6 C          10     1.0947276     1.1046746     1.0917848
   6 C    6 C           6     1.5283504     1.5380798     1.5244314
   1 H    7 N           4     1.0151926     1.0154586     1.0149191
   6 C    7 N           2     1.4626869     1.4626962     1.4626776


optimized geometry written to: xtbopt.xyz


           -------------------------------------------------
          | TOTAL ENERGY              -25.837474584964 Eh   |
          | GRADIENT NORM               0.000407235957 Eh/α |
          | HOMO-LUMO GAP              10.460825894850 eV   |
           -------------------------------------------------

------------------------------------------------------------------------
 * finished run on 2022/04/01 at 14:50:02.754     
------------------------------------------------------------------------
 total:
 * wall-time:     0 d,  0 h,  0 min,  3.761 sec
 *  cpu-time:     0 d,  0 h,  2 min, 11.908 sec
 * ratio c/w:    35.071 speedup
 SCF:
 * wall-time:     0 d,  0 h,  0 min,  0.578 sec
 *  cpu-time:     0 d,  0 h,  0 min, 20.500 sec
 * ratio c/w:    35.494 speedup
 ANC optimizer:
 * wall-time:     0 d,  0 h,  0 min,  3.123 sec
 *  cpu-time:     0 d,  0 h,  1 min, 49.196 sec
 * ratio c/w:    34.970 speedup

